64
Lattice="10.937456 0.0 0.0 0.0 10.937456 0.0 0.0 0.0 10.937456" pbc="T T T" Properties=species:S:1:pos:R:3:forces:R:3 energy=-333.06995852 stress="13017.74417 -336.01246000000003 7092.66971 -336.01246000000003 10420.43452 14517.27198 7092.66971 14517.27198 3308.90773"
Si 4.007669815152 4.24958446696 3.8924218412799996 2.206154 0.59732786 0.98927451
Si 4.004344828528 4.196417493344 9.335764005903998 1.71546245 1.70633422 2.71748948
Si 4.208251820736 9.517949210495999 3.9653090480639994 -0.17652728 0.22608197 0.6277196
Si 4.114419385712 9.368270125136 9.737321765488 -0.13520569 2.20018732 0.10301267
Si 9.441583892704 4.147734876687999 4.083761696543999 -0.56137761 0.6001215 0.68091361
Si 9.803449624464 4.072485179407999 9.401432491727999 -1.60822795 -0.23124751 0.78609218
Si 9.505896133984 9.694315688496 3.9263170174239996 2.22153633 1.70243566 2.03919472
Si 9.536181949647998 9.561349035904 9.368007626192 -0.28362293 -0.62659456 0.8440688
Si 2.5886880235359997 10.638032204544 0.282689487776 0.25726882 0.22383989 -1.79010545
Si 2.7653607503039996 10.844214187599999 5.294155264784 0.20074 0.13386403 0.0356888
Si 2.6306331672959997 5.1821885277119994 0.32620962519999996 0.89800945 1.20560983 -2.12117712
Si 3.119460888304 5.409403238656 5.713311391072 -3.40536798 -1.53794768 -1.94366904
Si 7.928113418704 0.09723398384 10.577351198656 1.91248503 -0.37904537 0.72090484
Si 8.332602416496 10.786048796591999 5.6836818227679995 -1.95132911 -0.40599793 -0.60049781
Si 8.171668688912 5.305748968144 10.844750122944 0.70899681 -2.64143724 1.11091358
Si 8.212891960576 5.639188251759999 5.640631995951999 -0.37297098 -1.67214412 -1.91533406
Si 4.08103827 1.2798026640159998 1.078301912128 0.01933246 -0.07569396 2.44434254
Si 4.099916319056 1.214943549936 6.681166872511999 -0.33482394 -0.33173578 2.23307471
Si 4.025847867024 6.908162834335999 1.1971045592 -1.45008417 -0.78773839 1.71840344
Si 4.282910895392 6.831578767424 6.894053516095999 0.27087545 1.3241258 1.73076605
Si 9.196475503743999 1.663291746288 1.120443930096 0.60249835 -1.34668854 1.10848227
Si 9.60702385216 1.4183583566239997 6.794052355887999 -0.11402137 -1.56513909 0.78539043
Si 9.45641508304 6.582128208432 1.2926869871839999 0.25155639 0.28117832 1.53279112
Si 9.834337000208 6.877067646927999 6.459311515007999 -0.92794952 -1.1862377 3.86250075
Si 2.78790284712 2.698587581424 2.8454666780479996 -0.98623143 -0.82187318 -1.4621398
Si 2.9120429727199997 2.788679406496 8.101778345071999 -2.49990604 -2.72084295 -1.13453132
Si 2.683384517584 8.406736493264 2.6829798317119997 0.35839306 -2.35814793 0.48393115
Si 2.7775122639199994 8.163356222352 8.385452203888 -0.57326761 -0.17518796 -1.77948816
Si 7.971196057888 2.7681607390399994 2.927946033744 1.57464754 -0.95782497 -0.28672387
Si 8.275640145648 2.8378213963039998 7.914518160896 0.2685243 0.3217993 1.7528011
Si 8.502876731504 8.344524243536 2.582311486688 -2.1025486 -2.29479435 -0.64553714
Si 8.164931216015999 7.904849449792 8.09677992768 1.83843072 0.42956669 0.41096396
Si 1.19584675176 4.1865737829439995 1.7941255949599997 1.14923234 -2.45003702 -1.41278125
Si 1.2897885613439999 3.7811113515679997 6.589850052368 2.36485549 3.01010381 2.68178243
Si 1.056087938992 9.434233922272 1.533529768304 -0.46384665 0.98597279 -0.1948822
Si 1.4574925741919997 9.76862476456 6.825235042944 -0.51848295 -1.23113093 1.39069226
Si 6.712644870879999 3.9494825492319996 1.571460865712 -0.80343338 2.48160499 -1.92658507
Si 6.837922491903999 4.107102227647999 6.730461986703999 -1.51540697 0.58988941 0.04766531
Si 7.042835730064 9.550444392272 1.2233107037759998 -1.79792038 -0.10722553 0.01343134
Si 6.665898183935999 9.264233043664 7.117068243935999 0.03698731 2.56349322 -0.70422876
Si 10.902248329135999 0.30628158036799996 2.647148725856 -2.00916005 -1.16557736 -1.17587267
Si 0.028984258399999997 0.174999296 8.256937095887999 0.41998585 -0.49699481 -0.22622202
Si 10.869042212719998 5.541855830815999 2.918802320528 -0.55479927 1.52527669 0.92474305
Si 0.06465130241599999 5.485604494607999 8.141295373599998 1.47380259 0.66330642 -1.10780581
Si 5.546143313568 10.839336082224 2.64948934144 0.73881982 1.28226467 -0.51211771
Si 5.393587677279999 0.12102295063999999 8.534518791712 -0.1390566 -0.92580909 -1.83320344
Si 5.584938469999999 5.840174943216 2.5609287602079998 -0.21521276 -1.58414339 1.28035573
Si 5.764542434976 5.706584855631999 8.352519523872 -2.31793253 -2.9100591 -2.28652228
Si 1.315404083296 1.30177601312 4.103460054799999 0.55857538 1.34080935 0.76139282
Si 1.44522074856 1.2900073104639997 9.7707028812 0.41411996 0.83503423 -0.09794542
Si 1.5103532990399997 6.891898837263999 4.2757249868 0.17112079 0.19833757 0.07037718
Si 1.4703222100799997 6.78625394976 9.829426082464 -0.06107796 -1.1685524 -1.1378835
Si 6.835078753344 1.335529002336 4.296309278992 0.33934837 -2.0321192 -0.49219631
Si 6.846147458816 1.761291352048 9.4368370368 -0.57673001 -0.72911673 -0.14799805
Si 7.00664368816 6.987240641215999 4.187459716879999 0.21668821 0.08036059 -1.75430927
Si 6.95933919096 6.771171197935999 9.767870080096 1.24194944 1.29301168 -0.33437139
Si 0.028065512096 2.8409932585440005 0.17450711048 0.25732789 -0.09253512 -0.86050642
Si 10.703142880111999 2.7559217257759996 5.430818777503999 0.72544641 -0.8402036 -2.34905962
Si 10.873701568976 7.887229208176 0.17078837544 -0.22395682 2.28983837 -1.60551493
Si 0.000470310608 8.433434823359999 5.493862273887999 1.66643287 1.47328132 -2.03920753
Si 5.37920492264 2.844799493232 10.898168658047998 -0.25385491 0.38297576 -0.77428218
Si 5.223433674288 2.5302710710399996 5.294888074335999 0.98262079 2.86809777 -0.1646196
Si 5.470554555152 7.970266374128 10.879618732672 1.31050081 2.25901561 0.69495565
Si 5.488152921856 8.154551570271998 5.413843845791999 -0.43839204 0.77467686 0.23320311
64
Lattice="10.937456 0.0 0.0 0.0 10.937456 0.0 0.0 0.0 10.937456" pbc="T T T" Properties=species:S:1:pos:R:3:forces:R:3 energy=-339.6676307 stress="4082.73215 3402.54035 6647.425209999999 3402.54035 6159.40502 -1646.64996 6647.425209999999 -1646.64996 5097.6008999999995"
Si 4.2923499199199995 4.1967018672 4.132159939344 -0.63296112 -0.46642702 0.48762033
Si 3.9383919688479994 3.9565153334399996 9.489205576127999 1.2165685 0.32232717 0.44694665
Si 3.8761906565759996 9.62731283304 3.9979573542239994 -0.15846244 -1.41395476 0.00565901
Si 4.167017611615999 9.643117456959999 9.573380237503999 -0.81899651 0.27276256 -0.49007583
Si 9.54167255256 3.973599639712 4.1435567684959995 -0.06222034 -0.18310944 -1.78714234
Si 9.688529774272 4.135244301936 9.635887798544 -0.49301489 0.87341943 -1.34434745
Si 9.610567587903999 9.624523781759999 3.8729859819679997 -0.0499242 -0.32784725 2.04933024
Si 9.28157984888 9.495418051136 9.373859165151998 2.63918489 1.60094369 1.69397053
Si 2.7062875504479997 10.903834260256 0.05664508462399999 -0.03217883 0.73143019 -1.06985022
Si 2.6465909155999996 0.024313964688 5.388622072255999 -0.44384319 0.12585772 0.89769309
Si 2.742140531216 5.342662882143999 0.10760269212799999 0.9055242 1.42640935 -1.15091074
Si 2.765513874688 5.592408752448 5.56705572944 0.08412394 -0.89748292 -1.16640793
Si 8.260765205488 0.043115451552 10.832882983183998 -1.46217861 -1.23340589 -0.784215
Si 8.214587266256 10.82463614136 5.53993083856 0.02051325 -0.20115052 -1.0846781
Si 8.233574689871999 5.560022945231999 10.852340717408 -0.17561946 -1.69231361 0.51013992
Si 8.296596311344 5.41819695328 5.423709431103999 -0.93277312 0.00945689 0.29623906
Si 4.167247298192 1.275547993632 1.372738227648 0.53304056 0.61406561 -0.09735287
Si 4.181159742224 1.326035290528 6.766850902815999 -0.61268182 0.46145004 -1.26258816
Si 4.226768933743999 6.888694162656001 1.227740373456 -1.28232319 -0.04011915 0.9928585
Si 4.047635279375999 6.818289758383999 7.057984106624 -0.25087567 0.24513039 -0.45469165
Si 9.631195629919999 1.343699281968 0.9576289600799999 0.57538316 1.81051959 2.08188647
Si 9.796023091839999 1.3087541100479998 6.7306369859999995 -2.05424005 0.87803876 -0.10602722
Si 9.37930601824 6.7968414071679994 1.3871975444799998 1.98965693 -0.67689667 0.78750012
Si 9.546561595392 6.649415437743999 6.873698910479999 0.45046514 0.83332808 0.988162
Si 2.8552666386239998 2.666518960432 2.7591482752959995 0.52071741 -0.11128987 1.01232234
Si 2.688612621552 2.5455397596159997 8.044914511327999 -0.19797636 0.2491552 0.99231155
Si 2.529735135696 8.173987429583999 2.62996598248 0.48841707 0.24157121 -0.435941
Si 2.67923922176 8.180363966432 8.389160001472 0.51682146 0.46397321 0.29455373
Si 8.228215336432 2.4851321901279997 2.6189300893759997 -0.41103359 0.63172006 0.24906428
Si 8.333291476224 2.808334014928 8.121936076479999 1.19170533 -0.43944745 0.47640398
Si 8.221948174143998 8.104840832752 2.8271573767039997 -0.68899813 0.82651071 0.16200695
Si 8.146151604063999 8.28638072744 8.029372386352 -1.24906291 -3.61840756 -0.18864593
Si 1.5445000366719999 3.9984604771999996 1.438909836448 -0.50592589 -0.18198947 0.4554728
Si 1.4368754696319999 4.101064751936 6.840656855904 0.40616068 0.59015711 0.08272317
Si 1.140426662208 9.743173304448 1.299949457968 1.56564236 -2.45937741 -0.54639065
Si 1.360203903072 9.502822708847999 6.960072000512 -0.19998475 0.55788263 -0.53280306
Si 6.877067646927999 4.2051783956 1.4141693109759998 1.37883905 0.63642765 0.97005118
Si 6.943961127823999 4.21102993456 6.9318096142079995 0.2070178 -0.82423426 -1.08955375
Si 7.025773298703999 9.636795607392 1.40950995472 -0.86261026 -0.97237727 -0.29178558
Si 6.6496998116 9.38783723392 6.790114871727999 0.31660309 2.12483909 -0.26624126
Si 10.835223598768 0.136969761488 2.4675775732479996 -0.41003262 0.83848069 2.25598556
Si 10.860095373712 0.044920131792 8.236910613951999 0.25927707 -1.70201811 0.39482366
Si 0.09636992481599999 5.260763211616 2.706725048688 -1.38865947 1.24872151 0.51599759
Si 0.21466944891199996 5.503093486751999 8.297930680976 -0.71334162 0.36358207 0.58120863
Si 5.434460950351999 10.723705297392002 2.750310810848 -0.21610488 0.49778224 -0.96890523
Si 5.453820247472 0.057826329871999996 8.105245518623999 1.41810817 -0.20511619 1.70204252
Si 5.549358925632 5.655364749183999 2.7353374335839997 0.34219797 -0.27364328 0.60045974
Si 5.471418614175999 5.39211112072 8.193587350736 -0.44113074 0.51427232 1.58784374
Si 1.235516904672 1.3890022247199998 4.026427552192 0.57495114 0.35532224 -0.0861929
Si 1.197356120688 1.396964692688 9.573358362592 1.85826994 -0.34169841 -0.00148695
Si 1.2749901833759998 6.823528799807999 4.104947548816 -0.0560872 -0.08258731 0.69536453
Si 1.376621024528 6.999960902543999 9.930903799231999 -0.35790674 -1.20280583 -0.95668295
Si 6.75125409056 1.073533181312 4.047110281488 1.52298852 1.62996651 0.92756998
Si 7.062030965343999 1.6370418518879999 9.674179831999998 -1.67880978 -0.8771219 -1.05671464
Si 6.860059902848 6.920434659967999 4.354059046672 -1.17652935 0.25737806 -0.75573609
Si 6.820838185632 6.849209946495999 9.687665715247999 -0.22189898 0.34694927 -2.38222079
Si 0.126261992064 2.906092996656 10.932676331727999 -0.17688711 -0.69776296 0.12513984
Si 0.058591951792000004 2.864891599904 5.481109200192 0.13086039 -1.04529194 -0.2444832
Si 10.641072817311999 8.255558976432 0.075829382448 0.30615673 0.5634676 -0.55796476
Si 10.793223767728 8.151051584351999 5.662342846112 0.94050037 0.74540438 -2.01324367
Si 5.632822652368 2.922892929072 0.12627292952 -2.23862474 -1.63036985 -1.43974255
Si 5.74900031 2.687923561824 5.53550116888 -1.17944146 0.36473167 -0.80376619
Si 5.517202804991999 8.308682200224 10.864098482607998 0.60537707 0.47265766 0.97834158
Si 5.087043597967999 8.293326012 5.560515130751999 0.86826785 -0.92784628 -0.88090462
64
Lattice="10.937456 0.0 0.0 0.0 10.937456 0.0 0.0 0.0 10.937456" pbc="T T T" Properties=species:S:1:pos:R:3:forces:R:3 energy=-295.26465636 stress="-15165.85572 3755.2391900000002 3483.3692300000002 3755.2391900000002 -23160.549150000003 -1450.12279 3483.3692300000002 -1450.12279 -13664.179689999999"
Si 1.9514280871519998 9.224716015136 4.7739042326879995 -0.27854691 -0.1692019 0.72053248
Si 8.745939816192 2.676220483904 5.310506761504 0.06413238 -1.17740215 -0.06572701
Si 1.8839986709119998 2.868654084768 7.6379645859359995 2.11415948 -0.10699128 -0.00483677
Si 9.368751373199999 0.26195207119999997 7.358786021536 -0.6191442 -0.61889738 -0.51994753
Si 8.872814305792 6.062916234655999 10.913120160399998 -3.03040864 -2.54396635 -1.68834481
Si 10.598635488032 2.1863865169439998 8.224912224719999 -1.17505459 -0.77814804 0.65714942
Si 7.332568939504 7.094668334047999 8.634618389023998 0.69271038 0.12986984 0.05545997
Si 3.9399341501439995 7.6041787843519995 9.313210971632 0.7839065 0.32693675 1.08744632
Si 5.82561718928 1.731574284096 9.68686728096 -1.42219395 -0.44002323 0.38472347
Si 7.285494128879999 2.289340790272 1.840795719712 -0.00894441 -1.25145372 -0.66123167
Si 4.412629123552 8.02338959792 0.9144260088799999 0.08215122 0.06936059 -0.04061897
Si 7.494333913744 7.6986018419999995 2.201633330608 -0.65005157 -0.25261413 0.27983552
Si 6.289791884464 10.66505865832 6.08488958376 -0.65100415 0.31123427 -0.70258033
Si 5.293553704704 6.239304587567999 3.4615516996160003 -2.96585265 0.53582454 -3.78157705
Si 0.48916678214399995 4.095125713328 0.55020872408 -0.96926214 0.33252901 -2.31958828
Si 1.9010939146399999 5.9757228354239995 9.960784929024 -0.16505146 1.25577795 1.13917695
Si 3.0519549098719994 1.545342220784 0.6856144293599999 0.5734063 1.12659661 1.13051958
Si 7.304831551088 10.193413680688 10.077903207872 -0.19798665 0.21522383 -0.09748803
Si 10.584099609008 9.198127059599999 5.664191276175999 -0.42162827 -0.16265916 -0.00780933
Si 1.6773573147039997 1.069366010576 6.019057036096 -1.12704306 -0.77766828 0.94924862
Si 6.964414170544 3.8052065671359996 6.272991952047999 0.46060389 1.38267609 -0.48742047
Si 0.8139107882399998 10.514438951744 7.973985109167999 0.03700853 0.01364932 -1.98017463
Si 0.36552977951999993 1.773989738464 0.6227459322719999 -0.29130838 -1.24648447 -0.09985834
Si 4.47052107816 5.217571197871999 10.907104559599999 0.28522365 2.0914793 2.47925943
Si 6.038153834272 10.161345059696 1.642619954448 -0.3767296 0.03884795 -0.72448338
Si 4.459539872335999 4.001796401279999 9.163969384511999 1.51851827 -3.43657764 -1.62320167
Si 6.799324209679999 9.621439419167999 3.7942253613119994 0.34026138 -0.16650656 0.96159008
Si 4.6598921913439995 1.1047377432799999 2.76170764 0.94029294 -0.06206534 -2.37802955
Si 7.709659610016 2.555383470016 8.827719174703999 1.31803861 0.47739181 -1.3850229
Si 5.234032069152 6.0071680214239995 8.137937574608 1.83617443 0.59703481 -0.30623361
Si 0.142635363696 10.294574211232 3.1920746586879996 0.9823373 0.86427836 0.06910436
Si 7.544657148799999 9.38745442296 7.566302374224 0.54048171 -0.14937172 1.21738209
Si 3.2642618682879996 1.2082388894079998 4.463947667104 0.04499718 0.363429 0.34870533
Si 9.791287173391998 8.44300509736 3.0530924052959993 -0.72269796 -1.03124298 0.42264676
Si 2.8255714455839995 9.59909419656 2.6212378925919997 -0.00033417 0.36089403 -0.63722288
Si 0.551039970736 4.255764129599999 8.997665366031999 -0.93120607 0.8160189 0.49447874
Si 6.782393027791999 5.223269612447999 0.8239294979359999 -0.23335861 0.39018754 -0.03460198
Si 3.20090118568 4.000560468752 5.470882678832 -0.5113063 -0.20792943 1.37377642
Si 3.010031641024 5.243733592623999 8.0439520152 -2.21338015 -0.49502781 -1.79598592
Si 0.839329435984 6.372861862783999 4.817719681423999 0.27635175 0.02592464 -0.39262917
Si 6.644788893856001 5.883301332224 4.955334752815999 3.71708272 -1.28325444 3.3939455
Si 2.5701052857919997 10.425845558144 10.824668953727999 0.63832641 -1.68190863 -0.59072212
Si 1.888198654016 8.228171586608 8.293632260768 -0.09878514 -0.14680837 -0.41375178
Si 0.06846847455999999 1.610999769152 4.06113210008 0.96663073 -0.72503471 0.20357817
Si 8.713608696256 0.139080690496 4.117120937344 0.27283301 0.44495059 0.08579553
Si 7.055479429199999 4.234862651184 2.940392858672 0.05579682 1.48915866 1.19720242
Si 0.898851071536 5.53085275008 2.21133485408 0.53289232 1.62023375 1.45154565
Si 8.960051454848 9.060894799168 0.755417273552 -1.40517825 -0.83561418 -1.46872659
Si 9.127033595599999 4.65345002976 6.973065698239999 0.37661808 0.33168351 0.8506109
Si 10.0917172148 3.627746343536 3.6574962238559996 -0.16134123 1.44307017 -0.53720989
Si 10.364333305599999 7.395295249663999 0.540124389648 4.46024506 1.28924736 0.87825572
Si 8.799708349888 0.177099287552 1.3322368280799999 -0.13644668 3.28199952 0.94930157
Si 0.24852087523199998 3.450034558448 6.146161212272001 -1.24022749 0.69495339 -1.71034793
Si 4.0098026190719995 9.867532179168 8.624359055295999 -0.38174812 -0.48666021 2.10510043
Si 3.8987546283039998 0.127815110816 6.766588403872 0.64281952 0.92710123 -1.69656236
Si 0.345000174608 10.511026465472 10.139098274192 -0.84169413 0.44530275 1.60801883
Si 8.920610988512 2.295247016512 10.791714398799998 0.22314183 -0.28803055 1.23380508
Si 5.582597854415999 2.2859611163679996 7.139271279616 -1.35511992 -1.52923796 0.89157388
Si 9.497791479087999 6.05120221928 2.5865770945279998 -0.64850256 -0.33711025 0.47830377
Si 1.939790633968 8.015525567056 0.9589414547999999 -0.27435509 -0.31932575 -0.09473668
Si 1.7595632339999998 3.235999481984 2.309050085984 1.12415238 -1.10589467 0.90386523
Si 3.975732443632 4.047383717888 3.341841243696 0.42294346 -0.06155511 -1.16582826
Si 3.5562481936639996 7.046445090543999 6.554576756767999 -0.41027041 -0.03879255 -0.28306404
Si 9.436060477423998 6.601356256079999 5.507741905552 -0.40807532 0.22059287 -0.30637426
64
Lattice="10.937456 0.0 0.0 0.0 10.937456 0.0 0.0 0.0 10.937456" pbc="T T T" Properties=species:S:1:pos:R:3:forces:R:3 energy=-297.43645866 stress="2043.24174 -196.72537 -5794.32408 -196.72537 -20760.920299999998 -13543.16963 -5794.32408 -13543.16963 16222.47181"
Si 3.4797078765759997 5.4307203404 2.9199507534079996 0.01341797 0.69683076 1.05836813
Si 10.533951373248 2.679797032016 4.999314263392 0.11751559 -0.45055053 -0.56200978
Si 8.395164664816 6.855772420096 8.72201959992 -0.42799604 -0.84791262 0.23126267
Si 10.668328957663999 7.575807023488 4.359976210367999 -0.44333413 0.23935464 0.52182233
Si 7.410203002191999 6.023224206831999 5.150349593295999 1.17466827 0.10224098 1.96047999
Si 4.1540676637119995 4.971358125856 0.702851860016 0.98204607 0.406345 -1.59361143
Si 10.794623762095998 4.752466818927999 9.790302802352 0.04351276 -0.95217396 -0.33850872
Si 8.447620703792 6.063944355519999 2.7707310412 -0.5507992 -1.12114272 -0.270133
Si 3.324527250848 10.480029715168 5.4329078316 2.11599476 1.90715934 -2.90344011
Si 9.697706299856 0.232945937888 1.171609349264 0.09756921 -0.4412523 -0.65625386
Si 4.72153569336 9.056169818175999 1.3212446848 0.29150405 -1.27935881 -0.8283136
Si 5.956801036543999 7.1484149928319995 0.042174830335999995 -0.2191948 0.06278104 -0.65452375
Si 2.8451604292799995 7.6206505930879995 6.602482814048 -0.34392515 -1.53795796 0.21554551
Si 1.3565289178559998 10.452992323936 2.393312247008 -0.54355495 0.71536393 -0.8650871
Si 7.52901658672 2.9656911943999997 9.137205429679998 0.73684384 0.47628651 -0.39965144
Si 0.49965580244799995 8.356752319343999 1.9307891076799997 -1.55328395 -0.39037739 -0.6517688
Si 5.488776356848 5.47261079688 6.930781493343999 3.44510346 -0.24149446 -0.08072663
Si 7.5704804824159995 3.6708946074559994 1.2408981330239999 0.34470618 0.14698458 0.35291797
Si 4.6833858468319995 1.9435203064639996 2.2324550816159996 -0.11620964 -0.23292549 -0.25343447
Si 10.062995455344 5.011607963936 3.9190326717279995 1.00066971 -0.63793562 0.96096813
Si 2.677128292752 7.498894832895999 1.853384731568 1.7866159 0.31432163 -1.50784107
Si 4.58027844912 9.126388285696 3.808301867184 2.66131152 0.0084467 1.181912
Si 8.3622319848 3.7089569543360006 5.922468362159999 -0.26306337 1.40349294 0.87185228
Si 6.733240100527999 9.401377804448 9.59182078832 -1.07872444 -0.52787478 1.14221632
Si 1.6981056687359999 1.5021064572160001 3.6071729887999995 -0.1058471 1.11453553 0.7555749
Si 3.3757036074719995 5.2566288532479994 7.092677717056001 -2.94910349 0.60093797 -0.05883506
Si 0.8145342232319999 1.2091357608 10.822579899631998 1.25725008 -1.42719146 1.79086218
Si 1.2982432148319998 0.6692629326399999 8.409350545248 0.32547651 0.37836485 -0.1783307
Si 6.727224499728 9.955480262863999 7.417651409727999 0.67894311 0.59504289 -1.14734767
Si 0.128044797392 0.562699298832 6.2282577570079996 -0.41485697 -0.59604812 0.13659831
Si 2.3582030132479996 7.182058607488001 10.433293965679999 -1.08238095 -0.04560888 -0.02464116
Si 8.824306688432 9.223491020064 10.489031241455999 0.92022308 0.1783881 1.41777756
Si 6.085228644896 4.746702779615999 9.519611703808 -0.19587905 1.00183448 -0.11558047
Si 3.6442509646399994 10.664380536048 2.5081445975519996 0.02084165 2.06518145 -1.00278067
Si 10.371016091216 2.227861350096 9.432943302463999 -1.73808483 1.18988614 -1.22113204
Si 5.745762823024 5.9978055590879995 3.7135944356799997 -1.40179963 -0.790902 -1.34044831
Si 10.519601430976 3.0285596914879993 1.0871284391199998 -0.14367086 0.38061356 -0.1346508
Si 4.103470992256 6.233376486415999 9.21475199272 0.31338401 -0.23196296 0.30321519
Si 7.2726754304479995 0.9361040466719999 10.11184213384 -0.84456249 -0.87495474 1.36794649
Si 6.161637712511999 3.314060105456 3.537654518464 0.53097198 0.64523375 -0.33769587
Si 5.764925245935999 3.1062812538239997 6.201406302528 1.30274248 0.41030018 -2.80439465
Si 10.000608206319999 9.105519619648 6.64674669848 -0.33504663 0.86426355 -0.40425994
Si 10.236036946719999 8.34079457104 8.86513621168 0.42588906 1.73350531 0.40581535
Si 2.728031212976 3.367839576608 2.0809931909279995 -1.22286304 -0.83947924 0.79500893
Si 8.818433274559998 1.9092095069919996 2.6633142858239998 0.71295968 0.69364051 -2.26042006
Si 4.918508338463999 1.3214743713759998 4.639800084671999 0.15462429 -0.11711084 0.5374404
Si 2.251617504528 9.776182546655999 7.093344901871999 -1.87414858 -0.48161817 2.8031245
Si 8.456436293328 8.468762806239999 4.210647123599999 0.09592138 -1.44614516 0.33723943
Si 0.541207197792 6.631434260079999 8.180779589759998 1.24527989 -1.28534789 -0.55189091
Si 5.158552685296 2.7126750247519995 8.206252924784 -1.08426054 -0.12738527 2.94169192
Si 1.191953017424 9.520705449408 4.662199994559999 -0.42030529 0.20945162 0.43972171
Si 3.505968708432 2.746296764496 10.880734353184 0.15383052 -0.15427439 -0.36384003
Si 2.7286218356 3.5779918561919994 8.634235578063999 0.00822889 -0.89171786 0.39745785
Si 1.00340221344 6.138854991664 2.891841491488 -0.09468519 -1.15789253 1.13170956
Si 1.0419786207519999 9.379852891039999 10.669630514927999 -0.25582105 -0.16893284 -0.65229993
Si 9.277543927616 6.711190189231999 0.7586547605279998 0.9180777 0.63598614 -1.5329058
Si 2.850311971056 7.754853178208 4.158158272256 -0.80706284 -1.11542232 1.86562945
Si 8.685805683104 0.157379054384 8.521339157232 0.84590787 -0.78270272 -1.07069868
Si 6.766325904927999 7.585650733888 2.289198603344 -0.61973786 1.14773185 0.039993
Si 9.776915356208 4.808740030048 7.833865360352 -1.28319964 0.54486052 -1.47624643
Si 7.917558773664 1.8352723044319998 4.66586404232 -1.32765066 -1.03675923 1.11998841
Si 0.72509864552 5.418875075551999 0.73494235592 0.25151205 0.26634632 0.49353998
Si 10.169580964064 0.016307746895999998 3.669614925104 -0.04194669 -0.11392771 0.39106222
Si 7.319673678879999 10.395844116335999 4.2679047057599995 -1.19054443 1.2106282 0.27496026
64
Lattice="10.937456 0.0 0.0 0.0 10.937456 0.0 0.0 0.0 10.937456" pbc="T T T" Properties=species:S:1:pos:R:3:forces:R:3 energy=-344.90935346 stress="879.83466 -5503.750779999999 -5257.15087 -5503.750779999999 1138.7057 -4790.48856 -5257.15087 -4790.48856 1305.69091"
Si 4.03696032232 4.222809574672 4.203647151759999 -0.43652536 -0.98414865 -0.40870863
Si 4.16476449568 4.03570251488 9.531260094448 -0.63915553 0.39119804 0.07909532
Si 4.100856940272 9.57716459728 4.067158638336 -0.09205166 -0.44898817 0.00206353
Si 4.037036884511999 9.544975664272 9.726449934224 0.1177933 0.99285614 -0.69838064
Si 9.587916116528 4.082755450592 4.0062698207839995 0.25808298 0.30008865 -0.16951067
Si 9.655575219344 4.09695226848 9.447424494207999 -1.03655614 -0.31150929 0.95503461
Si 9.347707707856 9.506902379936 4.137431793136 0.91149659 -0.0199265 -1.03908529
Si 9.474516572719999 9.61057852536 9.568961505279999 -0.24810943 -0.88783301 -0.18417358
Si 2.710312534256 0.063896617952 0.10966987131199998 -0.15992217 -0.52997721 -0.13639408
Si 2.728851522176 10.927918538367999 5.415014153584 0.50235857 0.31921129 0.56313557
Si 2.6988063305439995 5.4826404440320005 10.824078331104 1.05536367 -0.09176829 0.30512161
Si 2.730568702768 5.625319557551999 5.578244746928 0.42790518 -0.18322984 0.44188899
Si 8.187331125903999 0.0048562304639999995 0.010128084255999998 0.08100876 0.53176041 0.56583303
Si 8.194517034496 10.935465383008001 5.486260741968 -0.26031671 0.0351462 1.39930197
Si 8.295316628992 5.504755980064 0.008268716736 0.31692554 0.06560576 -0.7961969
Si 8.308452513648 5.487529486864 5.453962434399999 -0.18951982 -0.63370923 -0.0212228
Si 4.092478848976 1.356255481456 1.4523957196959998 0.59663063 0.46713131 0.000433
Si 4.107966286672 1.436842657264 6.798624212496 -0.53654808 -0.69888918 0.29476044
Si 4.091516352848 6.7618634228799985 1.3820460027039998 0.35677331 0.27490057 -0.19916075
Si 4.2331673455039995 6.917853420352 7.052220067312 -1.00680913 -0.23138097 -0.81654502
Si 9.645381510352 1.492284621728 1.2676183380319999 -0.41611928 -1.19659138 0.12506115
Si 9.604366050352 1.358519534848 6.936698657039999 -0.10355764 -0.65348168 -0.71728946
Si 9.671576717472 6.907178463295999 1.328266531552 -0.50887811 -0.7056701 0.36599958
Si 9.60768009952 6.883017622991999 6.786046138095999 -0.07718609 0.03853072 0.31670433
Si 2.7016828814719998 2.693884475344 2.821404274848 0.67204219 0.15311268 0.53532486
Si 2.646175292272 2.7817231844799997 8.136318831119999 0.55627619 -0.14262849 0.06528714
Si 2.6737048690239997 8.187538937567998 2.73015307944 0.86288389 0.34795171 -0.49912574
Si 2.6934579145599997 8.26220894968 8.299374425167999 0.27685613 -0.17303396 -0.42835584
Si 8.195249844048 2.677412666608 2.65244245456 0.1640845 0.43816186 0.60949755
Si 8.168595263776 2.6792939090399996 8.173276494944 0.0926038 0.717039 0.34378913
Si 8.142257869728 8.051455110015999 2.70384849776 0.16426059 0.28270967 0.50003143
Si 8.147551598431999 8.155689065696 8.183415516656 1.14292744 0.64285214 -0.48095602
Si 1.586652992096 4.080863270704 1.374171034384 -1.51830295 0.3913932 -0.48376191
Si 1.271304260704 4.144234890768 6.734902593839999 0.81806624 -0.25035537 0.07038813
Si 1.276587051952 9.559478730928 1.380941319648 0.23891099 -0.09640361 -0.36154703
Si 1.3947881389439998 9.574386483456 6.794992977103999 -0.46275422 -0.18717388 0.16467258
Si 6.939443958495999 4.123245912703999 1.2962854102080001 -0.65895924 -0.25801885 0.58023285
Si 6.87194891752 4.163014502719999 6.822730365519999 0.0669014 -0.65517028 -0.45963315
Si 6.879123888656 9.569081817295999 1.4779893667360002 -0.27594063 -0.17537576 -1.14611256
Si 6.7819117797279995 9.443060449264 6.826438163103999 0.0098492 1.55077402 0.07972174
Si 10.752525493952 10.833243919232 2.674393928752 0.33374817 0.76932376 0.69415166
Si 10.908067055727999 10.822317400688 8.267283929264 0.91822721 1.11666528 -0.39465341
Si 0.138621317344 5.5511854807839995 2.6528799527999998 -0.30644905 -1.13150562 0.29132171
Si 10.921552938976 5.445354656528 8.117145470752 0.15758121 0.99334724 0.05424764
Si 5.514413753712 0.0025921770719999995 2.765021689168 0.04099732 0.39561043 0.61958595
Si 5.410223547856 0.004331232575999999 8.236166866944 -0.0808008 -0.48390064 -0.17345844
Si 5.496738824816 5.312683315248 2.79555906632 -0.16827311 0.75935841 -0.98997675
Si 5.580650987248 5.446546839232 8.26849798688 -0.36122431 -0.12405542 -0.01408144
Si 1.30407287888 1.29329948472 4.123136538143999 -0.67147906 -0.18150384 -0.63338155
Si 1.391145966096 1.3886084763039999 9.615555067839999 0.02644644 -0.74570357 -0.88216214
Si 1.413436501424 6.862170831855999 4.10406161488 -0.56268016 0.13648957 0.29064479
Si 1.279835476384 6.870406736223999 9.544078792879999 0.15799187 -0.64827243 -0.38117861
Si 6.878872327168 1.4205677227359998 4.229820483968 -0.43244426 -0.23689633 -1.39054681
Si 6.828516279743999 1.3592523443999998 9.580128647856 -0.23867024 -0.27758986 -0.03828833
Si 6.836205311312 6.6865371634079995 4.126833398272 -0.32310067 0.60930093 -0.11061883
Si 6.894141015743999 6.879233263215999 9.536160074736 -0.31699194 -0.7650434 1.25947011
Si 0.11079642928 2.794180946864 10.875068750975998 -0.15184638 0.71509458 0.51952626
Si 10.879728107232 2.6970672750399998 5.459901473007999 0.02290049 0.05525852 -0.27950478
Si 10.870803143136 8.224321602096 10.843907938831999 0.38719091 0.72918 0.26767904
Si 10.895707730447999 8.249204314496 5.372019014047999 0.46825004 0.02034033 0.50622229
Si 5.516349683423999 2.7296390190079998 0.041518582975999994 -0.46728824 -0.16098216 -0.06336683
Si 5.4092391768159995 2.779491943456 5.420340694656 0.58814661 0.61647451 0.76024933
Si 5.504690355327999 8.219618496016 10.915646712735999 0.05414828 -0.38797972 1.07292371
Si 5.453174937568 8.156115626479998 5.446612463967999 -0.13716925 -0.19817022 -0.30202302
64
Lattice="10.937456 0.0 0.0 0.0 10.937456 0.0 0.0 0.0 10.937456" pbc="T T T" Properties=species:S:1:pos:R:3:forces:R:3 energy=-340.84239183 stress="6219.96915 -2048.3680799999997 6298.722309999999 -2048.3680799999997 4004.10079 1384.4752199999998 6298.722309999999 1384.4752199999998 2164.4154900000003"
Si 3.9228935936959997 4.098341325392 4.247659474704 0.57415252 -0.38657253 0.83995037
Si 4.133691183184 4.05079620416 9.537581944015999 0.98517628 1.13489714 0.68792821
Si 4.163462938416 9.465952544672 4.024305685728 -1.03691411 0.54368258 0.62624687
Si 3.9155436232639995 9.39538407856 9.536903821744 1.40808085 0.89978907 1.30183819
Si 9.536324136575999 4.277059356432 4.054930562528 -0.31948321 0.63788367 -0.25894785
Si 9.281864222735999 3.761369243488 9.515291408687998 1.12389535 1.08829298 0.46176201