64
Lattice = "10.937456 0.0 0.0 0.0 10.937456 0.0 0.0 0.0 10.937456" pbc="T T T" Properties=species:S:1:pos:R:3:forces:R:3 energy=-295.20943762 stress="-13769.82306 1602.76339 -2275.53034 1602.76339 -7269.55938 13213.92809 -2275.53034 13213.92809 14744.325509999999"
Si 7.829545065232 10.621166647391998 8.494804888975999 -0.61196745 0.20739327 2.37155302
Si 6.395458646879999 1.9292031765599997 8.982943550256 1.29064753 -0.93921885 0.85742715
Si 1.3026510096 7.194155433823999 0.263745813984 -0.00026623 0.04385236 -0.79678693
Si 2.529253887632 2.904353941152 8.558515570175999 0.54482431 -0.11813872 0.016175
Si 9.268170527824 1.8643221875679998 9.423340216096 -0.76699685 -0.47709169 0.07466727
Si 3.400006634704 2.400301281392 3.0085660219199997 0.35063349 -0.06215383 0.17590691
Si 8.661666717712 9.981216096832 1.449858229904 -1.02192394 -0.50637587 -0.26440268
Si 5.43493126096 9.869829044927998 0.7820827912799999 0.92471966 1.06799685 0.02069758
Si 1.521432941968 7.369592228064 2.76810605176 1.06147056 0.8728975 0.93972939
Si 6.23686553488 5.416632897072 6.4989926053759985 0.08806718 -0.77034245 0.60488238
Si 7.104271420416 7.139522841103999 5.018826684895999 -0.75746381 -1.03708769 -0.1597716
Si 6.787293008079999 6.738041643712 1.0379426994879999 -0.44025167 0.01891315 -0.20012968
Si 6.1583017884319995 9.953949019023998 6.756427507248 -0.35471795 -0.24660605 -0.26955549
Si 7.688976880719999 8.151489082591999 8.315397798208 -0.14561662 -0.06547815 -0.18609507
Si 10.068562620447999 6.607437481615999 3.5147405481439997 0.69427053 0.20464189 0.70665574
Si 9.182398997872 2.6712439414239997 4.43475559704 -0.52356727 -0.18416185 -0.54675738
Si 8.318700909919999 0.33944394695999996 6.472709898608 0.69899302 1.64767931 -1.90332629
Si 10.171221582464 10.811773693104 10.392070694015999 -0.65907239 0.70153134 -1.45450734
Si 3.9410060208319995 7.874727695968 7.210649117471999 0.14353316 1.31343514 1.15128715
Si 1.0587238658879998 0.8736949227359999 1.328288406464 -0.25177945 0.42124588 0.46468297
Si 10.431729909471999 4.400783858704 9.586002061728 -1.47707957 0.86977917 1.32625973
Si 4.9043005831199995 8.872486182111999 9.613684762863999 -0.36054499 -0.92009985 -1.02178954
Si 10.721583430928 10.292299220383999 8.111676742752 -0.14093495 1.40964357 -0.547628
Si 2.8970039707199997 9.410554330032 0.939407158384 -0.33350421 -1.68520139 -0.16476844
Si 3.1160155896639994 10.665124283055999 2.81836366208 0.54903956 1.39204429 1.33261846
Si 5.5545214048639995 1.7650319619999997 0.129630728512 -0.13791671 -0.45401414 0.77556395
Si 7.373234400912 5.075734268464 3.8895562278080003 0.68592596 -0.06833691 0.09560566
Si 0.26819735857599997 5.709330157087999 6.14810807944 -1.6514894 1.39250101 -2.65418442
Si 9.48091498448 1.2100654445599999 1.334686818224 -0.04461826 1.75964912 0.2008732
Si 3.6450931487519993 0.390926552352 10.826036135728 0.34373292 0.38056304 -0.34238536
Si 5.535041795728 5.400062651231999 8.86365965512 2.47589825 -1.42303656 -1.96949625
Si 4.149419244912 6.3445010393759995 10.172020016751999 -1.38950904 1.44158096 1.84062201
Si 0.9954834952959999 0.34859859763199996 3.8845359355039997 -0.12682154 0.03622127 -0.45237401
Si 8.972465467408 5.1854478896 1.9554311960479998 0.76235811 1.31692076 1.24094287
Si 8.10771738368 9.146327267983999 5.392253307648 -1.17936211 -2.22464409 2.26067132
Si 3.9590856355999997 5.872910749024 6.119572256735999 -0.14123753 -0.44746055 -1.18503786
Si 1.8679315480479997 6.436933480032 7.325153344335999 2.41668746 1.06086263 2.0492262
Si 0.9256587761919999 5.342662882143999 1.9188891555519998 -1.26046879 -1.22175714 -1.10680042
Si 10.187813703216 3.7855957085279996 6.163573642223999 -0.3171335 -1.74147623 1.13405471
Si 10.583148050335998 8.141525060175999 7.308517473759999 -0.09933358 -0.73091035 -1.21681266
Si 8.896887646447999 10.55076224312 4.079922649487999 1.39840074 2.61403223 -2.81360936
Si 6.0209492159839995 2.7758716455199997 7.032138898095999 -0.23119752 1.28637834 -1.98596771
Si 5.0788405059679995 8.329463366624 2.447004218512 0.34777783 -0.17167494 0.74668174
Si 4.734813764944 1.421059908256 5.5351292953760005 -0.34299331 -0.323154 -0.13911198
Si 5.935144873664 10.929493532032 3.90368742096 -0.18117991 -0.30381055 -0.1003082
Si 8.204721680944 4.004005767392 9.255844014911998 -2.45056047 -0.12899678 0.83245074
Si 2.4593635437919996 0.45819190675199994 7.470501197119999 0.53583358 -0.6486301 -0.81936417
Si 9.293457926095998 6.41356013656 0.015793686464 -0.35378088 0.36153961 1.61051174
Si 8.105234581167998 3.41204877376 1.0035881501919999 -0.57917024 -2.36343635 -1.31515788
Si 0.241641215408 9.415716809264 0.8034327053919998 2.10141263 -0.94515079 -1.45069902
Si 10.456721996431998 8.956420219456 2.7545654812319995 -0.86913579 -0.58772365 3.1890343
Si 1.57373585656 2.26230339904 6.282595038416 0.25814606 0.07687293 0.3468819
Si 0.774853132864 2.8725915689279997 4.183270671231999 -0.90555302 -0.77399344 -0.21552953
Si 1.63443873736 0.64755208248 9.676356385743999 -0.41899195 0.45871459 0.06249399
Si 6.281884103776 3.4344049338239997 2.629058173632 1.03531931 -0.8645778 1.47938928
Si 4.863908558112 3.8056768777439998 1.051012959408 -2.58106755 0.67409764 -1.90708151
Si 9.802169942112 6.668774734864 8.863987778799999 -0.31385641 -0.0261524 -1.56883176
Si 2.15407727192 4.667231224319999 3.7475005492799998 1.35451041 0.30354629 0.29478974
Si 7.310453403471999 8.75674602272 10.59899642408 0.35326948 -0.14998927 0.53125265
Si 4.109760029456 6.489028582959999 3.675652400816 -0.79426149 -0.31787257 0.39989079
Si 1.499043969536 5.2405507929279995 9.431838619408 2.46469315 1.35757736 0.28020604
Si 2.28680330048 3.4671844894559993 0.10042772099199998 0.2869967 -0.10717673 0.74632888
Si 0.18713987216 2.7284905861279998 8.294704131456 0.10006384 -0.96580025 -1.59049105
Si 1.3566382924159999 8.72021491968 9.010462189552 0.94810089 -0.69037952 0.18874714
64
Lattice = "10.937456 0.0 0.0 0.0 10.937456 0.0 0.0 0.0 10.937456" pbc="T T T" Properties=species:S:1:pos:R:3:forces:R:3 energy=-298.96501782 stress="-22035.181510000002 1515.7615 -4047.7701 1515.7615 -8800.31167 8115.208859999999 -4047.7701 8115.208859999999 -12610.77241"
Si 5.541440207488 0.9012463744000001 3.1203686971519997 0.47738134 1.44069956 0.33205219
Si 10.232515085888 4.479183543312 2.408843434528 0.54120931 -0.90235391 -0.71240604
Si 8.349566410751999 10.516331131632 0.43723574105599994 3.25587005 0.60996474 -0.56256475
Si 0.00042656078399999994 7.324672096272 10.514417076831998 0.40493371 -0.12566722 0.34381049
Si 7.2654785843999985 2.042537095632 1.143653211728 -0.46566063 -0.77461625 0.89343023
Si 6.440127217183999 6.852545870576001 8.073526896224 0.62674721 0.80349829 -2.00222893
Si 1.6815463603519998 5.437031252511999 10.641182191872 -0.06048764 0.68955266 -0.87430604
Si 5.5824337925759995 1.6821916702559998 7.307773726752 -0.63752099 -1.44786375 -0.02873177
Si 0.7236767762399999 4.610389265487999 8.006950601552 -0.46922719 -0.39645847 0.74407466
Si 0.042688890768 2.039376170848 7.31546275832 0.88899752 0.92318735 1.3283198
Si 3.435903365296 6.902737856159999 5.8535623893599995 -0.71123933 0.20810093 0.70889229
Si 1.529581346688 2.402816896272 9.250058100688 0.0221051 0.19373964 0.17633366
Si 6.648343567056 4.463258607376 0.9694086001919999 -0.24707313 0.53348186 -1.33125175
Si 6.41520075496 3.8010284589439998 6.962532928111999 0.55235725 1.25819579 -0.32159879
Si 7.305531548272 3.429067455296 4.594409642272 0.5495296 -0.11124027 1.35401167
Si 7.823999775039999 8.552018721311999 5.985905606959999 0.38492723 -0.76396225 -0.76399776
Si 8.7218008508 4.139498972319999 8.847964405759999 -0.5031052 3.55371053 -0.32039984
Si 1.70121190624 3.605247996544 4.7146997833599995 -0.17377492 -0.22524006 -0.14143544
Si 5.349619104159999 9.852996300144 5.671792808095999 -1.30015251 -1.38061351 0.42938732
Si 4.036304074959999 7.954352375647999 2.307825090912 -0.62012786 -1.34545316 -0.34092133
Si 9.00048722968 10.15400602672 3.96521061096 -2.16275272 1.05011066 0.07281706
Si 9.981019222623999 0.739634524544 5.779767373727999 -0.89914539 -1.2843501 -0.57688718
Si 8.669333874368 6.509787874448 9.526622613104 -0.47173897 0.12538628 0.26331572
Si 8.975702954384 2.073818219792 8.910045406016 0.33165756 -3.20364957 0.27048937
Si 6.116958204751999 6.119462882175999 10.094003143104 -0.1028107 -0.98103086 2.40400625
Si 4.31252952624 8.278757320608 8.005692794111999 0.79086105 0.03541183 -0.9627346
Si 7.1424322043999995 10.445368917104 9.235347222367999 -1.18400945 0.32040144 4.42462729
Si 2.542597583952 6.35395100136 8.361138239199999 0.14660695 -1.39145287 -0.64351163
Si 7.628339624656 10.463907905024 7.249389586623999 1.21324392 0.7128975 -3.43862049
Si 5.98038219168 3.1749466025919997 2.7399639774719997 -1.68318104 0.31840226 0.66630016
Si 0.579433606512 10.429334606608 3.774537940512 1.6589645 1.12940942 -0.17465846
Si 3.877153152704 5.681461519199999 3.5863152602079995 -0.45725391 -0.0238041 -0.43097076
Si 5.542752702207999 6.946367368143999 4.769583937568 1.5870098 0.1104637 -0.02611989
Si 4.053552443071999 4.476000743616 7.613639683792 0.53114225 0.47161514 1.03704352
Si 7.602341291743999 5.880709155151999 2.5686068543199996 0.76927132 0.28127863 0.67980287
Si 10.399037853487998 7.725650170687999 5.843828053519999 -0.62297442 -0.82379529 0.44942138
Si 3.498607800544 2.777763825408 6.202051612431999 0.14156289 -0.0499797 -0.32716867
Si 0.5598774351839999 5.5837572247519995 5.884154453791999 0.07567352 -0.19316598 -0.45995409
Si 6.939618957792001 0.43770605166399995 5.152394897568 0.90173491 1.79663569 -0.92334915
Si 7.155163403184 8.404516189695999 3.057959573216 0.59264442 -0.2929195 0.98516916
Si 2.389309138112 3.2335166794719994 2.397238793712 -0.27343253 0.39992252 -0.33778198
Si 1.746044538384 10.314644442992002 8.362461671376 0.92948331 0.1112157 0.5017962
Si 2.383895097392 7.83466379464 3.838292371536 -1.3441399 -0.47620561 1.10572706
Si 7.667441029856 6.05612407448 5.9826790574399995 -1.28396994 0.51670693 0.38528168
Si 9.169230300848 5.069915541872 4.343296589967999 -0.50179808 -0.35559232 0.98294782
Si 6.3687931291519995 9.887066475584 0.7647469235199998 -3.80649 -1.33505878 0.29968204
Si 10.744803650016 2.046977702768 3.833042392656 0.30539407 -0.17160051 -0.27785081
Si 2.5782099406879997 8.283908862384 9.703634401008 0.02506683 0.78251212 0.89687732
Si 0.4344357523199999 3.632799448208 0.44600758076800007 0.11870535 -1.28387368 0.34677041
Si 4.817446245024 7.82744507368 0.188135180656 0.35424397 0.70457436 -1.45888518
Si 9.356282673359999 1.6396230915039998 1.704832204176 2.25518143 -0.80344041 0.36756398
Si 10.268554003408 6.733032288863999 1.8883080285759999 0.56230806 0.81953785 -0.07349899
Si 1.315513457856 1.3111712878239998 1.338766489312 -0.2641795 0.0658555 -0.11111192
Si 5.244050778848 9.661853319088 2.963208391888 0.09784825 0.39972194 0.66585997
Si 4.3529215512479995 3.258311892224 10.038834615039999 -1.24311725 0.70893033 -0.6547257
Si 1.6815135479839998 8.89351891 1.6282371998079999 -0.18822406 0.12893516 -0.06504359
Si 0.41709988455999997 9.708162507792 6.46436461968 0.24024876 1.20149092 -0.25826709
Si 6.563589220512 2.667076770688 10.081796942208 1.56764241 0.91060585 -1.41295135
Si 3.51409523824 0.22985063783999998 6.879047326463999 1.16693523 -0.64069617 0.51046027
Si 2.98379268408 10.867018783359999 10.644364991567999 -0.70274636 0.07875088 0.04766922
Si 8.331541483264 7.7624000228479995 1.084919073008 -0.46058006 0.40601857 -1.32835274
Si 1.8578909634399998 1.0803362789439999 5.592572814287999 -1.52484952 0.2116764 -0.95718613
Si 5.104904463615999 0.887924552992 9.728724925072 -0.5112297 -1.09465457 -0.41312896
Si 10.385442595679999 8.403717755408 3.6532853032959993 0.80950379 -2.13386007 -0.96133924
64
Lattice = "10.937456 0.0 0.0 0.0 10.937456 0.0 0.0 0.0 10.937456" pbc="T T T" Properties=species:S:1:pos:R:3:forces:R:3 energy=-335.68901422 stress="660.14109 -13938.54291 1512.32787 -13938.54291 649.07815 1096.78143 1512.32787 1096.78143 2583.46761"
Si 4.090017921376 4.027258798847999 4.221497079952 0.02527078 -0.62806301 -0.2229749
Si 4.392854203103999 3.7543255218239997 9.624742530879999 -0.75328873 1.29376571 -0.35063373
Si 3.9069905326719994 9.462397871472 4.159755140832 -2.55213522 1.18758163 -1.8796547
Si 4.151322362256 9.671051719584 9.379437267712 -0.47956902 0.47702417 1.86365352
Si 9.241100324224 4.168931666416 3.9694762187999997 1.03725979 -0.38207361 1.53798386
Si 9.371420112464 4.3052451805439995 9.470994711887998 0.98856435 -1.80707372 0.68023097
Si 9.562902154656 9.376932590287998 4.141828650448 -0.77753409 1.63056764 -0.38367257
Si 9.388121607776 9.805987114255998 9.428305821119999 -0.52781868 -3.41412503 1.00373738
Si 2.878224358768 0.4028483793919999 10.904337383231999 0.51748231 -2.17142585 -0.85020314
Si 2.5516537975199998 0.012414012559999998 5.364417482127999 0.88517794 0.6933705 -0.04284029
Si 2.986264549136 5.299273994192 10.726133412623998 -0.69920759 1.04120586 0.85819097
Si 2.647597161552 5.38308771952 5.431529712144 0.65598238 0.69472483 1.02749453
Si 8.352410149312 0.10731831827199999 0.016438996368 -0.39177532 0.21089382 2.43337031
Si 8.462408144304 10.793715953247998 5.797256365871999 -1.13505977 0.06538766 -1.39975864
Si 8.318514973168 5.652838196847999 0.17415711188799998 0.34828372 -0.47978711 -0.07784697
Si 8.107422072368 5.630711723359999 5.584894720175999 0.73295812 0.55762297 -1.58405929
Si 4.246379792351999 1.0983174566079998 1.664702678112 -0.86288528 2.0441183 -0.45968137
Si 4.262632851968 1.3153165836479999 6.4327881842079995 -0.9693812 0.2272316 2.94180208
Si 4.272804686048 6.811289786543999 1.3191993805279998 -0.5345067 -0.39674784 -0.17671761
Si 4.086933558784 6.971162580895999 6.810381977696 -0.76514941 -0.29620722 -0.29060308
Si 9.609473842304 1.4141146236959998 1.690810385584 0.31773036 -0.84436073 -1.54810775
Si 9.731820225119998 1.5934670271840004 6.741421317616 -2.61701508 -1.03013688 1.92963839
Si 9.825947971456 6.933548669712 1.583098318896 -2.04871839 1.13949948 -1.12930032
Si 9.486875898 6.890991028416 7.018718639584 0.95218823 0.40210164 -0.48441681
Si 2.796849686128 2.727495277632 2.697296961616 -0.54582778 -0.50293588 0.19969651
Si 2.818823035232 2.842710439136 8.110232998559999 0.23663844 -1.36339474 -0.82704578
Si 2.6833626426720003 8.241591845119999 2.526180462496 0.54593696 -1.02192698 -0.00249671
Si 2.6789767228159995 8.369527267952 8.186095193376 -0.7495535 -0.58047468 -0.81703634
Si 8.022623976 2.405441885712 3.068328281504 0.89168453 1.42186722 -1.67679687
Si 8.012441204464 2.611547306576 8.150942209792 1.56947662 1.74670805 0.02664638
Si 8.080351868768 8.349719535136 2.678768911152 1.62398177 -2.48688007 1.13105896
Si 7.887240145632 8.285319794208 8.183984264367998 1.77188105 -0.29519196 0.15893309
Si 1.471711266992 3.9929917491999993 1.109626786112 -0.32097425 0.48092526 0.93751536
Si 1.2228732055359999 3.9891089523199996 6.757149379343999 0.65246951 0.12818986 -0.48615322
Si 1.6193887979039998 9.627258145759999 0.9140978851999999 -1.62676072 -0.14916437 1.50859037
Si 1.2089279491359999 9.761876354207999 6.781539906224 0.04124584 -1.03741333 0.84529937
Si 7.149257176943999 4.066907076848 1.5552624933759998 -1.57090762 -0.34638739 0.13309914
Si 6.925728388672 4.262151603903999 6.897422252543999 -1.77989803 -0.3680111 1.12363742
Si 6.856789603504 9.579866148912 1.368505432176 -0.94108838 1.46783012 -1.68433716
Si 6.632998316287999 9.635997173104 6.836380310608 0.45780932 0.34356716 -0.2747007
Si 0.0037187350400000006 10.680283597071998 2.6987516432639995 0.46069023 0.14058663 -0.77399338
Si 10.631174419632 0.04889042832 8.117342344959999 3.4853243 1.29476183 -0.36630623
Si 10.871470327952 5.3217942160959995 2.70324693768 1.86934725 -0.68505157 0.25495585
Si 0.137965069984 5.415714150767999 8.233432502944 -2.04262077 0.01700338 -0.84812243
Si 5.442489043056 10.693802292688 2.9839129960960005 1.07041937 -0.29527525 -0.17882199
Si 5.588744704688 0.156252496416 8.357572628544 -0.58152864 0.36300934 -1.76429444
Si 5.4649327027679995 5.255906981152 2.8612056772320003 0.22453803 0.93301679 -1.57557766
Si 5.306766151552 5.647785092176 8.368192898319998 0.97955154 -1.77589993 -0.79776179
Si 1.2058326490879998 1.320074377008 3.9643246770239995 1.74294476 -0.72449113 -1.19946433
Si 1.4366348455999998 1.450700414016 9.474549385088 -1.24028627 -0.00260262 -0.53116482
Si 1.439358272144 6.774638371488 4.0307259724 -1.28468297 0.50838287 -0.21156734
Si 1.3831944355839998 6.78428520768 9.50426645304 1.25092929 0.65270795 0.76710542
Si 6.776924299791999 1.098054957664 4.380155816688 0.39297578 -0.59714021 0.69264541
Si 6.937103342912 1.43712703112 9.82369485552 -1.00027865 0.07896624 -0.46156306
Si 6.679657503583999 6.8666880011839995 3.9547981528479994 0.76855237 0.41333964 1.14391361
Si 6.928736189072 6.742963498911999 9.57306305128 -0.80016366 0.89853418 1.03662289
Si 10.873209383455999 2.6086160683679998 10.920732629776001 -0.47921802 1.10514371 -0.24929207
Si 10.855184455967999 2.5920676974399997 5.208482171936 0.04298969 3.48522318 -0.2253198
Si 10.871853138912 8.193620163103999 10.842792318319999 0.70242501 0.72433104 -0.78233516
Si 10.905923314352 8.240104351104 5.478648272591999 0.92169817 -2.04192903 0.65658509
Si 5.554641716879999 2.610037937648 0.42781859143999995 0.87598361 0.62846158 -0.87104084
Si 5.707503601936 2.82476207384 5.50952471088 -0.85553698 0.27342682 -0.50147489
Si 5.530776187888 8.290985396416 10.786683169039998 -0.14340211 -0.58993708 0.58765303
Si 5.3392832082399995 8.373803813248 5.25386167688 2.03638142 -2.4569703 2.50707825
64
Lattice = "10.937456 0.0 0.0 0.0 10.937456 0.0 0.0 0.0 10.937456" pbc="T T T" Properties=species:S:1:pos:R:3:forces:R:3 energy=-338.83557056 stress="4154.17324 2827.20484 -1045.90487 2827.20484 2512.87226 5605.577120000001 -1045.90487 5605.577120000001 3145.70226"
Si 4.01437447568 4.171316031824 4.269075013552 0.91448851 -1.09437286 -0.00344895
Si 4.118017808736 3.9183326745439997 9.613794137423998 1.61222432 0.56086967 -0.67233233
Si 4.04171811568 9.770626319007999 3.9128858214559994 0.74759204 -1.93280662 -0.08087143
Si 3.8707438034879997 9.719132776159999 9.878994633056 2.07341801 -1.33938431 -2.45236558
Si 9.565045896032 4.130628695504 4.083400760496 -1.10411389 -0.21295838 0.28144943
Si 9.520421075552 4.510431855104 9.503686767871999 -0.45620199 -1.42747118 0.99610502
Si 9.584295818591999 9.509636743936 4.134861490975999 -0.08177098 1.08422205 1.20332934
Si 9.59203953744 9.316218772031998 9.347303021983999 0.29501637 1.18147719 0.87668356
Si 2.7221577991039996 0.185160192624 0.22536628087999996 -0.08320173 0.54552892 0.47514114
Si 2.6370206416 10.909259238432 5.323850457824 -0.11499931 0.72981103 0.70173823
Si 2.833796412496 5.187876004832 0.007885905775999999 -1.18498261 0.12349816 1.72343625
Si 2.7887340937759997 5.44778277176 5.743411269984 -0.58102819 0.0454463 -1.91355081
Si 8.291051021151999 0.08495122075199998 10.551155991536 0.81476656 -2.51446304 1.66269408
Si 8.158029681279999 0.17975708936 5.5708182143039995 1.14041935 -1.81644137 0.02791532
Si 8.18717800152 5.774867393439999 0.037865472671999995 -0.16524278 -0.3970227 0.2286495
Si 7.851059041183999 5.284147492543999 5.495710703952 2.03809164 1.14573464 -0.95866079
Si 4.301329571296 1.4834799696479999 1.421934904736 -0.37835045 0.61188257 -0.57788022
Si 4.000046408319999 1.345175838528 6.775896178927999 -0.06125546 -1.01256217 0.37939661
Si 4.132072439696 6.643421711855999 1.3956412605119999 0.27038643 0.43129865 -0.16866699
Si 4.092227287488 6.766577466416 6.931754926927999 2.0624326 1.27627772 -0.09492839
Si 9.417608989151999 1.2750120582879998 1.2797261018239998 0.56398116 -0.70878404 0.19267632
Si 9.781060652031998 1.4320848639039998 6.743193185488 -2.08729298 -0.23809712 1.76311474
Si 9.693046943599999 6.945098623247999 1.490545566224 0.16126313 -0.42952339 -0.57078878
Si 9.395854389167999 6.828767841232 6.725343257295999 0.9065347 -1.44032762 -0.17589159
Si 2.876550928 2.6092504408159995 2.915991394336 -0.90233141 0.25503549 -0.0945511
Si 2.760318583088 2.5900770804480002 8.344119557664 -1.20122605 -0.32448334 -0.35449319
Si 2.732570257216 8.046664504288 2.6702705078399998 -0.48806601 1.17255253 0.12378315
Si 2.8211855257279996 8.304777528432 8.022284914864 -1.41320032 0.75050952 2.17423483
Si 8.257527718512 2.7389577315199993 2.554016288016 -0.7603802 0.92573642 1.17978596
Si 8.378485044416 2.934825693568 8.186817065471999 0.43992312 -0.84160414 -0.48844807
Si 8.286785413312 8.289301028191998 2.7569060968159995 -0.88165705 -0.1458869 -0.94389552
Si 8.127973552192 8.141470372895999 8.061364445152 -0.13293291 0.63253119 -0.27309363
Si 1.250085596064 3.630393207888 1.550526574928 0.26295955 1.61765599 -1.61152253
Si 1.5124532905919998 4.113752200896 6.963911047568 -1.81677882 -0.98265064 1.15665379
Si 1.280251099712 9.775974734992 1.346225834304 0.07389146 -1.74267737 1.24736029
Si 1.19923736312 9.721637453584 6.68322311424 1.18835379 -2.24456315 0.07881448
Si 6.793877356591999 4.295488969792 1.3822538143679999 1.05785571 -0.23209375 0.27149165
Si 6.759293120719999 3.7310615529119997 6.768054022976 -0.66203531 1.46172147 0.748496
Si 6.998954656592 9.585958311904 1.1030533750559999 0.50135211 1.12622372 1.4966357
Si 6.79128517952 9.623036287744 6.866928625215999 -0.56597331 0.16171929 -0.42348201
Si 10.865531289343998 0.067309104224 2.870447827552 -0.68672602 -0.48986945 -1.60620899
Si 10.882254659567998 10.904928005855998 8.164635904704 0.32044608 -0.0486939 0.71656562
Si 0.064126304528 5.3362754078400005 2.7191062488799997 -0.07683085 -0.10089644 -0.23990696
Si 0.077316876464 5.643705421087999 8.281601059167999 0.63082794 0.37514686 -1.19145304
Si 5.623372690384 0.112863608464 2.610595747904 0.42087409 -1.90038424 0.11830845
Si 5.427964101488 0.07532625947199999 8.251752741744 -0.39382998 -0.22038075 0.52898137
Si 5.459803035904 5.431617211792 2.944374092656 -0.33914837 0.36292449 -1.01380517
Si 5.554149531359999 5.404787632223999 8.213121647151999 -0.98339271 -1.60280871 -0.51944939
Si 1.1912530202399998 1.412255256176 4.167181673456 1.67942664 0.33310757 -0.01530056
Si 1.193593635824 1.2214294613439998 9.811630841551999 -0.27027563 1.54103206 -1.49320055
Si 1.448644172288 6.553209574768 4.108906907888 0.21322398 1.40144177 0.3622536
Si 1.600117000432 6.750893154511999 9.754712320527998 -0.34325677 1.08575527 -1.49996987
Si 6.9830625330239995 1.320741561824 4.02602286632 -0.62317126 1.13605444 -0.55930437
Si 7.0344248263999996 1.489047134752 9.44323544856 -1.68153037 0.78102399 -0.81811919
Si 6.819985064063999 6.936162721695999 4.043949356704 0.10204034 -0.27537487 0.7288732
Si 6.8050335617119995 6.881223880207999 9.395154391983999 -0.53677476 0.70611331 2.05380375
Si 10.506596795792 2.758251403904 10.861506305536 2.15182301 0.15784044 0.09195596
Si 10.934141950831998 2.8326917294399996 5.520877790208 1.20553936 1.59566459 -0.64516474
Si 0.1008980316 8.196627963504 10.916751395791998 0.04402296 0.34119429 0.10241255
Si 0.015673374448 8.025117715968 5.388687696992 -0.10635479 0.5072188 0.03146508
Si 5.720595736768 2.8048559039199996 0.004899980288 -0.89753398 -0.39866719 -0.29861631
Si 5.412881349664 2.489135299024 5.366856534816 -0.21358213 0.80197732 -0.41125619
Si 5.4650639522399995 8.288754155391999 0.156143121856 -1.28149895 -1.52286881 -1.74646601
Si 5.3963220412799995 8.23415437504 5.399001717999999 -0.33624664 0.67189075 0.19288826
64
Lattice = "10.937456 0.0 0.0 0.0 10.937456 0.0 0.0 0.0 10.937456" pbc="T T T" Properties=species:S:1:pos:R:3:forces:R:3 energy=-344.85564046 stress="599.00082 5948.48514 -133.50712000000001 5948.48514 401.70039 1550.5881200000001 -133.50712000000001 1550.5881200000001 1134.6670199999999"
Si 4.22798299136 4.053005570272 4.139827095999999 -0.20717037 -0.37315105 -0.62300221
Si 3.9100858327199997 4.23159235184 9.603403554223998 0.78652078 -0.73012074 -0.28692101
Si 4.017043214944 9.741838934815998 4.159809828112 0.50842287 0.19422015 -0.17139953
Si 4.159470766976 9.413037132543998 9.514646098783999 0.3435931 0.22459041 0.05232429
Si 9.47336813984 4.185676911551999 4.1435786434079995 0.13082882 0.01086278 0.37620364
Si 9.47189158328 4.046399346848 9.538074129536 1.19275898 0.43446415 0.77500771
Si 9.709846876016 9.598558261215999 4.0073963787519995 -1.14132221 -1.01855694 1.31399218
Si 9.503085207792 9.601730123455999 9.575633353439999 0.23479206 -0.49484052 -0.0293191
Si 2.9005367690079997 10.807420585615999 10.883490592095999 -1.18972414 0.53255214 -0.14879172
Si 2.6187222777119996 0.134727583008 5.5521589143679995 0.31198199 -0.28232851 -0.11642974
Si 2.7481780069279997 5.629300791536 0.08208560728 -1.48114159 -0.87472685 -0.15773651
Si 2.721118740784 5.269688175712 5.418109453632 0.35129031 0.48397856 0.87656201
Si 8.205727926896 0.05995913379199999 10.924451364815999 -0.76338264 0.02066932 0.24342182
Si 8.171931187856 10.899863963727999 5.48436856208 0.89814775 -0.06847027 -0.62992768
Si 8.154857819039998 5.417201644783999 0.000612497536 -0.23985417 -0.12781979 -0.15214971
Si 8.150132838048 5.555855774496 5.572240083584 -0.06528696 -0.28904161 -0.20867183
Si 4.130694320239999 1.447003553888 1.1716530990879999 0.04834327 -1.12690569 1.09790358
Si 4.239707944191999 1.3725741658079997 6.802583571567999 -0.96399604 0.01580955 0.6830284
Si 4.074530483679999 6.874475469856 1.3841350568 0.51939261 1.30646977 0.94213889
Si 4.148784872464 6.821899118864 6.642502965552 -0.75795709 -0.94681399 1.25685032
Si 9.548639712032 1.368527307088 1.3804272592159998 0.20648615 0.81095028 0.24258907
Si 9.601456687056 1.3235087381919999 6.823189738671999 0.33806144 -0.31389602 -0.1779076
Si 9.591558289376001 6.722608893295999 1.33300245 -0.57649569 0.5860253 0.33542825
Si 9.595583273184 6.864992695503999 6.885062927263999 0.02013367 -0.32190775 0.31986749
Si 2.824357387968 2.700589135872 2.683822015824 0.1692112 0.77967471 -0.02536576
Si 2.7160218862879995 2.756698285152 8.172849934159998 0.61385296 -0.95092483 0.40528029
Si 2.7488561292 8.381372532799999 2.7861091043359996 -0.40420764 -1.38939892 -0.35372065
Si 2.755506102448 8.051870733344 8.211426341472 -0.33012822 0.26761379 -0.65850789
Si 8.141339123423998 2.841343257136 2.784380986288 0.13098613 -1.10966319 -0.40510168
Si 8.274918273551998 2.7342655628959998 8.13380321624 -0.45581442 -0.86177081 0.24559867
Si 8.247509008816 8.178668660751999 2.716076573568 0.61679018 -0.05854233 0.16034604
Si 8.11827202872 8.180878026863999 8.203726372448 0.60693065 -0.307758 0.53119015
Si 1.38785379184 4.154909847824 1.4322051759199999 0.09495538 -0.21990484 -0.35850518
Si 1.291702616144 4.018202585279999 6.900189428911999 0.4199949 0.57841193 -0.71057149
Si 1.3251931064159999 9.589152049055999 1.306905679984 0.98089875 0.15459166 0.35315558
Si 1.327796220944 9.4721103324 6.831130331728 0.79059741 0.0721493 0.13860244
Si 6.712579246144 4.118805305568 1.405867781872 0.61097232 0.11076987 -0.30701618
Si 6.861711458704 4.068427383232 6.9321377378880005 -0.36797273 0.57849852 -0.61992577
Si 6.87807389288 9.563689651488 1.4543535243199999 0.14285734 0.02289437 -1.18122379
Si 6.844714652079999 9.550881890511999 6.8529286815359995 -0.14516339 -0.1825326 -0.51048389
Si 0.043060764272 10.934185700655998 2.7020656924319995 0.34633184 1.36112659 -0.16807125
Si 0.074123139312 10.850382912784 8.222090361071999 -0.87097325 0.28707044 -0.20486229
Si 10.892207744528 5.457582732335999 2.7852669202239997 0.66001464 0.08025406 0.11605953
Si 0.039867027119999995 5.408550117088 8.273682341024 -0.99297098 0.46788963 -0.04364725
Si 5.473004545296 0.017729616176 2.645978418064 -0.78080647 0.48424976 0.41455741
Si 5.5347792967839995 10.874325003968 8.215002889584 -0.6118469 0.51082074 0.15546878
Si 5.446667151248 5.554149531359999 2.7434749008479993 -0.12082337 -0.25770839 0.3621955
Si 5.3941564249919995 5.436823440847999 8.238616857088 -0.42615536 -0.0929903 -1.09040293
Si 1.37516634288 1.536614130896 4.068580507616 -0.148047 -1.23389088 -0.07806256
Si 1.4223505280639999 1.271194886144 9.554753749936 0.2506183 0.52449559 0.43751082
Si 1.498059598496 6.735930714704 4.1272490216 -0.69579292 0.75453531 -0.72348483
Si 1.253399645232 6.861263023008 9.667125172879999 0.89752189 -0.12909026 -0.48875277
Si 6.816550702879999 1.3135447157759998 4.08338982304 0.82760165 -0.05584507 -0.48631151
Si 6.795692974288 1.466078477152 9.527716358704 0.75255302 -0.73615748 -0.09917109
Si 6.836303748416001 6.9015347359999994 4.103963177776 0.01763079 -0.0021344 0.13864172
Si 6.739310388608 6.732419791328 9.54380535648 0.95480537 0.75107096 0.53643145
Si 0.031434248543999996 2.767734178256 0.0019578046239999997 -0.02106 -0.51597705 -0.09153576
Si 10.90535456664 2.7885590944799996 5.433935952464 -0.66505956 -0.14202006 0.12055648
Si 10.877103117791998 8.210682594463998 0.079777804064 -0.57420187 0.25696583 -0.72692823
Si 0.043246701023999995 8.080078432368 5.446065591168 -0.04055647 0.57562573 -0.40122108
Si 5.446142153359999 2.8140871167839996 10.840440765279999 -0.3262084 0.78936895 -0.19291013
Si 5.630460161872 2.672764247808 5.463062397791999 -0.62494997 0.67843078 0.33499435
Si 5.532919929264 8.162787474639998 0.044056072768 -0.0740043 0.09399263 -0.0479387
Si 5.42842347464 8.283755738 5.418754763536 0.28719563 0.41379556 -0.28992755
64
Lattice = "10.937456 0.0 0.0 0.0 10.937456 0.0 0.0 0.0 10.937456" pbc="T T T" Properties=species:S:1:pos:R:3:forces:R:3 energy=-333.7064957 stress="3015.9108699999997 3859.97557 6886.0339699999995 3859.97557 11105.455810000001 -2323.59244 6886.0339699999995 -2323.59244 -1322.59228"
Si 5.614775849967999 5.4652389515360005 2.7866231647679998 0.00995144 -1.16831526 1.45085777
Si 4.268200017072 4.036402512064 9.635483112671999 1.01651386 0.6386713 0.2895653
Si 4.018301022384 9.401552803743998 4.0980022642559994 1.43617129 1.62820343 0.97657728
Si 4.318556064496 9.543389733151999 9.47664937664 -2.88342543 0.28415811 -1.30577429
Si 9.68506260072 4.126778710991999 4.1271287095839995 0.22161929 -0.6623716 0.3612779
Si 9.29432198512 3.9010186816959993 9.311723477615999 1.49578468 0.15483508 -0.05366637