64
Lattice="10.937456 0.0 0.0 -0.437498 10.928703 0.0 0.0 0.0 10.937456" pbc="T T T" Properties=species:S:1:pos:R:3:forces:R:3 energy=-346.57213537 stress="1057.07763 0.0 0.0 0.0 4230.40896 39634.91455 0.0 39634.91455 1944.52809"
Si 0.0 0.0 0.0 0.0 0.0 -0.36324853
Si 0.0 0.0 5.468728 0.0 0.0 -0.36324853
Si -0.218749 5.4643515 0.0 0.0 0.0 -0.36324853
Si -0.218749 5.4643515 5.468728 0.0 0.0 -0.36324853
Si 5.468728 0.0 0.0 0.0 0.0 -0.36324853
Si 5.468728 0.0 5.468728 0.0 0.0 -0.36324853
Si 5.249979 5.4643515 0.0 0.0 0.0 -0.36324853
Si 5.249979 5.4643515 5.468728 0.0 0.0 -0.36324853
Si 1.20312025 4.098263625 4.101546 0.0 0.0 0.36324853
Si 1.20312025 4.098263625 9.570274 0.0 0.0 0.36324853
Si 0.9843712500000001 9.562615125 4.101546 0.0 0.0 0.36324853
Si 0.9843712500000001 9.562615125 9.570274 0.0 0.0 0.36324853
Si 6.671848249999999 4.098263625 4.101546 0.0 0.0 0.36324853
Si 6.671848249999999 4.098263625 9.570274 0.0 0.0 0.36324853
Si 6.453099249999999 9.562615125 4.101546 0.0 0.0 0.36324853
Si 6.453099249999999 9.562615125 9.570274 0.0 0.0 0.36324853
Si 2.734364 0.0 2.734364 0.0 0.0 -0.36324853
Si 2.734364 0.0 8.203092 0.0 0.0 -0.36324853
Si 2.515615 5.4643515 2.734364 0.0 0.0 -0.36324853
Si 2.515615 5.4643515 8.203092 0.0 0.0 -0.36324853
Si 8.203092 0.0 2.734364 0.0 0.0 -0.36324853
Si 8.203092 0.0 8.203092 0.0 0.0 -0.36324853
Si 7.984343 5.4643515 2.734364 0.0 0.0 -0.36324853
Si 7.984343 5.4643515 8.203092 0.0 0.0 -0.36324853
Si -0.1093745 2.73217575 2.734364 0.0 0.0 -0.36324853
Si -0.1093745 2.73217575 8.203092 0.0 0.0 -0.36324853
Si -0.32812350000000007 8.19652725 2.734364 0.0 0.0 -0.36324853
Si -0.32812350000000007 8.19652725 8.203092 0.0 0.0 -0.36324853
Si 5.359353499999999 2.73217575 2.734364 0.0 0.0 -0.36324853
Si 5.359353499999999 2.73217575 8.203092 0.0 0.0 -0.36324853
Si 5.140604499999999 8.19652725 2.734364 0.0 0.0 -0.36324853
Si 5.140604499999999 8.19652725 8.203092 0.0 0.0 -0.36324853
Si 2.6249895 2.73217575 0.0 0.0 0.0 -0.36324853
Si 2.6249895 2.73217575 5.468728 0.0 0.0 -0.36324853
Si 2.4062405 8.19652725 0.0 0.0 0.0 -0.36324853
Si 2.4062405 8.19652725 5.468728 0.0 0.0 -0.36324853
Si 8.0937175 2.73217575 0.0 0.0 0.0 -0.36324853
Si 8.0937175 2.73217575 5.468728 0.0 0.0 -0.36324853
Si 7.8749685 8.19652725 0.0 0.0 0.0 -0.36324853
Si 7.8749685 8.19652725 5.468728 0.0 0.0 -0.36324853
Si 4.04685875 1.366087875 4.101546 0.0 0.0 0.36324853
Si 4.04685875 1.366087875 9.570274 0.0 0.0 0.36324853
Si 3.82810975 6.830439375 4.101546 0.0 0.0 0.36324853
Si 3.82810975 6.830439375 9.570274 0.0 0.0 0.36324853
Si 9.515586749999999 1.366087875 4.101546 0.0 0.0 0.36324853
Si 9.515586749999999 1.366087875 9.570274 0.0 0.0 0.36324853
Si 9.296837750000002 6.830439375 4.101546 0.0 0.0 0.36324853
Si 9.296837750000002 6.830439375 9.570274 0.0 0.0 0.36324853
Si 3.93748425 4.098263625 1.367182 0.0 0.0 0.36324853
Si 3.93748425 4.098263625 6.835909999999999 0.0 0.0 0.36324853
Si 3.71873525 9.562615125 1.367182 0.0 0.0 0.36324853
Si 3.71873525 9.562615125 6.835909999999999 0.0 0.0 0.36324853
Si 9.40621225 4.098263625 1.367182 0.0 0.0 0.36324853
Si 9.40621225 4.098263625 6.835909999999999 0.0 0.0 0.36324853
Si 9.187463249999997 9.562615125 1.367182 0.0 0.0 0.36324853
Si 9.187463249999997 9.562615125 6.835909999999999 0.0 0.0 0.36324853
Si 1.31249475 1.366087875 1.367182 0.0 0.0 0.36324853
Si 1.31249475 1.366087875 6.835909999999999 0.0 0.0 0.36324853
Si 1.0937457499999999 6.830439375 1.367182 0.0 0.0 0.36324853
Si 1.0937457499999999 6.830439375 6.835909999999999 0.0 0.0 0.36324853
Si 6.7812227499999995 1.366087875 1.367182 0.0 0.0 0.36324853
Si 6.7812227499999995 1.366087875 6.835909999999999 0.0 0.0 0.36324853
Si 6.56247375 6.830439375 1.367182 0.0 0.0 0.36324853
Si 6.56247375 6.830439375 6.835909999999999 0.0 0.0 0.36324853
64
Lattice="11.780001 0.0 0.0 0.0 10.937456 0.0 0.0 0.0 10.937456" pbc="T T T" Properties=species:S:1:pos:R:3:forces:R:3 energy=-343.7113257 stress="-108318.73567 0.0 0.0 0.0 -30835.42696 0.0 0.0 0.0 -30835.42696"
Si 0.0 0.0 0.0 0.0 0.0 0.0
Si 0.0 0.0 5.468728 0.0 0.0 0.0
Si 0.0 5.468728 0.0 0.0 0.0 0.0
Si 0.0 5.468728 5.468728 0.0 0.0 0.0
Si 5.8900005 0.0 0.0 0.0 0.0 0.0
Si 5.8900005 0.0 5.468728 0.0 0.0 0.0
Si 5.8900005 5.468728 0.0 0.0 0.0 0.0
Si 5.8900005 5.468728 5.468728 0.0 0.0 0.0
Si 1.472500125 4.101546 4.101546 0.0 0.0 0.0
Si 1.472500125 4.101546 9.570274 0.0 0.0 0.0
Si 1.472500125 9.570274 4.101546 0.0 0.0 0.0
Si 1.472500125 9.570274 9.570274 0.0 0.0 0.0
Si 7.362500625 4.101546 4.101546 0.0 0.0 0.0
Si 7.362500625 4.101546 9.570274 0.0 0.0 0.0
Si 7.362500625 9.570274 4.101546 0.0 0.0 0.0
Si 7.362500625 9.570274 9.570274 0.0 0.0 0.0
Si 2.94500025 0.0 2.734364 0.0 0.0 0.0
Si 2.94500025 0.0 8.203092 0.0 0.0 0.0
Si 2.94500025 5.468728 2.734364 0.0 0.0 0.0
Si 2.94500025 5.468728 8.203092 0.0 0.0 0.0
Si 8.83500075 0.0 2.734364 0.0 0.0 0.0
Si 8.83500075 0.0 8.203092 0.0 0.0 0.0
Si 8.83500075 5.468728 2.734364 0.0 0.0 0.0
Si 8.83500075 5.468728 8.203092 0.0 0.0 0.0
Si 0.0 2.734364 2.734364 0.0 0.0 0.0
Si 0.0 2.734364 8.203092 0.0 0.0 0.0
Si 0.0 8.203092 2.734364 0.0 0.0 0.0
Si 0.0 8.203092 8.203092 0.0 0.0 0.0
Si 5.8900005 2.734364 2.734364 0.0 0.0 0.0
Si 5.8900005 2.734364 8.203092 0.0 0.0 0.0
Si 5.8900005 8.203092 2.734364 0.0 0.0 0.0
Si 5.8900005 8.203092 8.203092 0.0 0.0 0.0
Si 2.94500025 2.734364 0.0 0.0 0.0 0.0
Si 2.94500025 2.734364 5.468728 0.0 0.0 0.0
Si 2.94500025 8.203092 0.0 0.0 0.0 0.0
Si 2.94500025 8.203092 5.468728 0.0 0.0 0.0
Si 8.83500075 2.734364 0.0 0.0 0.0 0.0
Si 8.83500075 2.734364 5.468728 0.0 0.0 0.0
Si 8.83500075 8.203092 0.0 0.0 0.0 0.0
Si 8.83500075 8.203092 5.468728 0.0 0.0 0.0
Si 4.417500375 1.367182 4.101546 0.0 0.0 0.0
Si 4.417500375 1.367182 9.570274 0.0 0.0 0.0
Si 4.417500375 6.835909999999999 4.101546 0.0 0.0 0.0
Si 4.417500375 6.835909999999999 9.570274 0.0 0.0 0.0
Si 10.307500875 1.367182 4.101546 0.0 0.0 0.0
Si 10.307500875 1.367182 9.570274 0.0 0.0 0.0
Si 10.307500875 6.835909999999999 4.101546 0.0 0.0 0.0
Si 10.307500875 6.835909999999999 9.570274 0.0 0.0 0.0
Si 4.417500375 4.101546 1.367182 0.0 0.0 0.0
Si 4.417500375 4.101546 6.835909999999999 0.0 0.0 0.0
Si 4.417500375 9.570274 1.367182 0.0 0.0 0.0
Si 4.417500375 9.570274 6.835909999999999 0.0 0.0 0.0
Si 10.307500875 4.101546 1.367182 0.0 0.0 0.0
Si 10.307500875 4.101546 6.835909999999999 0.0 0.0 0.0
Si 10.307500875 9.570274 1.367182 0.0 0.0 0.0
Si 10.307500875 9.570274 6.835909999999999 0.0 0.0 0.0
Si 1.472500125 1.367182 1.367182 0.0 0.0 0.0
Si 1.472500125 1.367182 6.835909999999999 0.0 0.0 0.0
Si 1.472500125 6.835909999999999 1.367182 0.0 0.0 0.0
Si 1.472500125 6.835909999999999 6.835909999999999 0.0 0.0 0.0
Si 7.362500625 1.367182 1.367182 0.0 0.0 0.0
Si 7.362500625 1.367182 6.835909999999999 0.0 0.0 0.0
Si 7.362500625 6.835909999999999 1.367182 0.0 0.0 0.0
Si 7.362500625 6.835909999999999 6.835909999999999 0.0 0.0 0.0
64
Lattice="10.937456 0.0 0.0 0.0 10.490839 0.0 0.0 0.0 10.937456" pbc="T T T" Properties=species:S:1:pos:R:3:forces:R:3 energy=-346.15355297 stress="27698.7014 0.0 0.0 0.0 64985.95374 0.0 0.0 0.0 27698.7014"
Si 0.0 0.0 0.0 0.0 0.0 0.0
Si 0.0 0.0 5.468728 0.0 0.0 0.0
Si 0.0 5.2454195 0.0 0.0 0.0 0.0
Si 0.0 5.2454195 5.468728 0.0 0.0 0.0
Si 5.468728 0.0 0.0 0.0 0.0 0.0
Si 5.468728 0.0 5.468728 0.0 0.0 0.0
Si 5.468728 5.2454195 0.0 0.0 0.0 0.0
Si 5.468728 5.2454195 5.468728 0.0 0.0 0.0
Si 1.367182 3.934064624999999 4.101546 0.0 0.0 0.0
Si 1.367182 3.934064624999999 9.570274 0.0 0.0 0.0
Si 1.367182 9.179484125 4.101546 0.0 0.0 0.0
Si 1.367182 9.179484125 9.570274 0.0 0.0 0.0
Si 6.835909999999999 3.934064624999999 4.101546 0.0 0.0 0.0
Si 6.835909999999999 3.934064624999999 9.570274 0.0 0.0 0.0
Si 6.835909999999999 9.179484125 4.101546 0.0 0.0 0.0
Si 6.835909999999999 9.179484125 9.570274 0.0 0.0 0.0
Si 2.734364 0.0 2.734364 0.0 0.0 0.0
Si 2.734364 0.0 8.203092 0.0 0.0 0.0
Si 2.734364 5.2454195 2.734364 0.0 0.0 0.0
Si 2.734364 5.2454195 8.203092 0.0 0.0 0.0
Si 8.203092 0.0 2.734364 0.0 0.0 0.0
Si 8.203092 0.0 8.203092 0.0 0.0 0.0
Si 8.203092 5.2454195 2.734364 0.0 0.0 0.0
Si 8.203092 5.2454195 8.203092 0.0 0.0 0.0
Si 0.0 2.62270975 2.734364 0.0 0.0 0.0
Si 0.0 2.62270975 8.203092 0.0 0.0 0.0
Si 0.0 7.868129249999998 2.734364 0.0 0.0 0.0
Si 0.0 7.868129249999998 8.203092 0.0 0.0 0.0
Si 5.468728 2.62270975 2.734364 0.0 0.0 0.0
Si 5.468728 2.62270975 8.203092 0.0 0.0 0.0
Si 5.468728 7.868129249999998 2.734364 0.0 0.0 0.0
Si 5.468728 7.868129249999998 8.203092 0.0 0.0 0.0
Si 2.734364 2.62270975 0.0 0.0 0.0 0.0
Si 2.734364 2.62270975 5.468728 0.0 0.0 0.0
Si 2.734364 7.868129249999998 0.0 0.0 0.0 0.0
Si 2.734364 7.868129249999998 5.468728 0.0 0.0 0.0
Si 8.203092 2.62270975 0.0 0.0 0.0 0.0
Si 8.203092 2.62270975 5.468728 0.0 0.0 0.0
Si 8.203092 7.868129249999998 0.0 0.0 0.0 0.0
Si 8.203092 7.868129249999998 5.468728 0.0 0.0 0.0
Si 4.101546 1.311354875 4.101546 0.0 0.0 0.0
Si 4.101546 1.311354875 9.570274 0.0 0.0 0.0
Si 4.101546 6.556774375 4.101546 0.0 0.0 0.0
Si 4.101546 6.556774375 9.570274 0.0 0.0 0.0
Si 9.570274 1.311354875 4.101546 0.0 0.0 0.0
Si 9.570274 1.311354875 9.570274 0.0 0.0 0.0
Si 9.570274 6.556774375 4.101546 0.0 0.0 0.0
Si 9.570274 6.556774375 9.570274 0.0 0.0 0.0
Si 4.101546 3.934064624999999 1.367182 0.0 0.0 0.0
Si 4.101546 3.934064624999999 6.835909999999999 0.0 0.0 0.0
Si 4.101546 9.179484125 1.367182 0.0 0.0 0.0
Si 4.101546 9.179484125 6.835909999999999 0.0 0.0 0.0
Si 9.570274 3.934064624999999 1.367182 0.0 0.0 0.0
Si 9.570274 3.934064624999999 6.835909999999999 0.0 0.0 0.0
Si 9.570274 9.179484125 1.367182 0.0 0.0 0.0
Si 9.570274 9.179484125 6.835909999999999 0.0 0.0 0.0
Si 1.367182 1.311354875 1.367182 0.0 0.0 0.0
Si 1.367182 1.311354875 6.835909999999999 0.0 0.0 0.0
Si 1.367182 6.556774375 1.367182 0.0 0.0 0.0
Si 1.367182 6.556774375 6.835909999999999 0.0 0.0 0.0
Si 6.835909999999999 1.311354875 1.367182 0.0 0.0 0.0
Si 6.835909999999999 1.311354875 6.835909999999999 0.0 0.0 0.0
Si 6.835909999999999 6.556774375 1.367182 0.0 0.0 0.0
Si 6.835909999999999 6.556774375 6.835909999999999 0.0 0.0 0.0
64
Lattice="10.937456 0.0 0.0 0.0 10.937456 0.0 0.0 0.0 11.981383" pbc="T T T" Properties=species:S:1:pos:R:3:forces:R:3 energy=-341.90819074 stress="-35068.8102 0.0 0.0 0.0 -35068.8102 0.0 0.0 0.0 -130924.07379"
Si 0.0 0.0 0.0 0.0 0.0 0.0
Si 0.0 0.0 5.9906915 0.0 0.0 0.0
Si 0.0 5.468728 0.0 0.0 0.0 0.0
Si 0.0 5.468728 5.9906915 0.0 0.0 0.0
Si 5.468728 0.0 0.0 0.0 0.0 0.0
Si 5.468728 0.0 5.9906915 0.0 0.0 0.0
Si 5.468728 5.468728 0.0 0.0 0.0 0.0
Si 5.468728 5.468728 5.9906915 0.0 0.0 0.0
Si 1.367182 4.101546 4.4930186249999995 0.0 0.0 0.0
Si 1.367182 4.101546 10.483710125 0.0 0.0 0.0
Si 1.367182 9.570274 4.4930186249999995 0.0 0.0 0.0
Si 1.367182 9.570274 10.483710125 0.0 0.0 0.0
Si 6.835909999999999 4.101546 4.4930186249999995 0.0 0.0 0.0
Si 6.835909999999999 4.101546 10.483710125 0.0 0.0 0.0
Si 6.835909999999999 9.570274 4.4930186249999995 0.0 0.0 0.0
Si 6.835909999999999 9.570274 10.483710125 0.0 0.0 0.0
Si 2.734364 0.0 2.99534575 0.0 0.0 0.0
Si 2.734364 0.0 8.986037249999999 0.0 0.0 0.0
Si 2.734364 5.468728 2.99534575 0.0 0.0 0.0
Si 2.734364 5.468728 8.986037249999999 0.0 0.0 0.0
Si 8.203092 0.0 2.99534575 0.0 0.0 0.0
Si 8.203092 0.0 8.986037249999999 0.0 0.0 0.0
Si 8.203092 5.468728 2.99534575 0.0 0.0 0.0
Si 8.203092 5.468728 8.986037249999999 0.0 0.0 0.0
Si 0.0 2.734364 2.99534575 0.0 0.0 0.0
Si 0.0 2.734364 8.986037249999999 0.0 0.0 0.0
Si 0.0 8.203092 2.99534575 0.0 0.0 0.0
Si 0.0 8.203092 8.986037249999999 0.0 0.0 0.0
Si 5.468728 2.734364 2.99534575 0.0 0.0 0.0
Si 5.468728 2.734364 8.986037249999999 0.0 0.0 0.0
Si 5.468728 8.203092 2.99534575 0.0 0.0 0.0
Si 5.468728 8.203092 8.986037249999999 0.0 0.0 0.0
Si 2.734364 2.734364 0.0 0.0 0.0 0.0
Si 2.734364 2.734364 5.9906915 0.0 0.0 0.0
Si 2.734364 8.203092 0.0 0.0 0.0 0.0
Si 2.734364 8.203092 5.9906915 0.0 0.0 0.0
Si 8.203092 2.734364 0.0 0.0 0.0 0.0
Si 8.203092 2.734364 5.9906915 0.0 0.0 0.0
Si 8.203092 8.203092 0.0 0.0 0.0 0.0
Si 8.203092 8.203092 5.9906915 0.0 0.0 0.0
Si 4.101546 1.367182 4.4930186249999995 0.0 0.0 0.0
Si 4.101546 1.367182 10.483710125 0.0 0.0 0.0
Si 4.101546 6.835909999999999 4.4930186249999995 0.0 0.0 0.0
Si 4.101546 6.835909999999999 10.483710125 0.0 0.0 0.0
Si 9.570274 1.367182 4.4930186249999995 0.0 0.0 0.0
Si 9.570274 1.367182 10.483710125 0.0 0.0 0.0
Si 9.570274 6.835909999999999 4.4930186249999995 0.0 0.0 0.0
Si 9.570274 6.835909999999999 10.483710125 0.0 0.0 0.0
Si 4.101546 4.101546 1.497672875 0.0 0.0 0.0
Si 4.101546 4.101546 7.488364375000001 0.0 0.0 0.0
Si 4.101546 9.570274 1.497672875 0.0 0.0 0.0
Si 4.101546 9.570274 7.488364375000001 0.0 0.0 0.0
Si 9.570274 4.101546 1.497672875 0.0 0.0 0.0
Si 9.570274 4.101546 7.488364375000001 0.0 0.0 0.0
Si 9.570274 9.570274 1.497672875 0.0 0.0 0.0
Si 9.570274 9.570274 7.488364375000001 0.0 0.0 0.0
Si 1.367182 1.367182 1.497672875 0.0 0.0 0.0
Si 1.367182 1.367182 7.488364375000001 0.0 0.0 0.0
Si 1.367182 6.835909999999999 1.497672875 0.0 0.0 0.0
Si 1.367182 6.835909999999999 7.488364375000001 0.0 0.0 0.0
Si 6.835909999999999 1.367182 1.497672875 0.0 0.0 0.0
Si 6.835909999999999 1.367182 7.488364375000001 0.0 0.0 0.0
Si 6.835909999999999 6.835909999999999 1.497672875 0.0 0.0 0.0
Si 6.835909999999999 6.835909999999999 7.488364375000001 0.0 0.0 0.0
64
Lattice="10.937456 0.0 0.0 0.0 10.937456 0.0 1.749993 0.0 10.796549" pbc="T T T" Properties=species:S:1:pos:R:3:forces:R:3 energy=-336.33758121 stress="13317.550360000001 -163470.42857 0.0 -163470.42857 27962.5213 0.0 0.0 0.0 66310.80071"
Si 0.0 0.0 0.0 0.0 1.59809089 0.0
Si 0.8749965 0.0 5.3982745 0.0 1.59809089 0.0
Si 0.0 5.468728 0.0 0.0 1.59809089 0.0
Si 0.8749965 5.468728 5.3982745 0.0 1.59809089 0.0
Si 5.468728 0.0 0.0 0.0 1.59809089 0.0
Si 6.3437244999999995 0.0 5.3982745 0.0 1.59809089 0.0
Si 5.468728 5.468728 0.0 0.0 1.59809089 0.0
Si 6.3437244999999995 5.468728 5.3982745 0.0 1.59809089 0.0
Si 2.023429375 4.101546 4.0487058750000005 0.0 -1.59809089 0.0
Si 2.8984258749999996 4.101546 9.446980375000003 0.0 -1.59809089 0.0
Si 2.023429375 9.570274 4.0487058750000005 0.0 -1.59809089 0.0
Si 2.8984258749999996 9.570274 9.446980375000003 0.0 -1.59809089 0.0
Si 7.492157375 4.101546 4.0487058750000005 0.0 -1.59809089 0.0
Si 8.367153875 4.101546 9.446980375000003 0.0 -1.59809089 0.0
Si 7.492157375 9.570274 4.0487058750000005 0.0 -1.59809089 0.0
Si 8.367153875 9.570274 9.446980375000003 0.0 -1.59809089 0.0
Si 3.1718622499999998 0.0 2.69913725 0.0 1.59809089 0.0
Si 4.04685875 0.0 8.097411750000001 0.0 1.59809089 0.0
Si 3.1718622499999998 5.468728 2.69913725 0.0 1.59809089 0.0
Si 4.04685875 5.468728 8.097411750000001 0.0 1.59809089 0.0
Si 8.640590249999999 0.0 2.69913725 0.0 1.59809089 0.0
Si 9.515586750000002 0.0 8.097411750000001 0.0 1.59809089 0.0
Si 8.640590249999999 5.468728 2.69913725 0.0 1.59809089 0.0
Si 9.515586750000002 5.468728 8.097411750000001 0.0 1.59809089 0.0
Si 0.43749825 2.734364 2.69913725 0.0 1.59809089 0.0
Si 1.3124947500000002 2.734364 8.097411750000001 0.0 1.59809089 0.0
Si 0.43749825 8.203092 2.69913725 0.0 1.59809089 0.0
Si 1.3124947500000002 8.203092 8.097411750000001 0.0 1.59809089 0.0
Si 5.9062262500000005 2.734364 2.69913725 0.0 1.59809089 0.0
Si 6.781222749999999 2.734364 8.097411750000001 0.0 1.59809089 0.0
Si 5.9062262500000005 8.203092 2.69913725 0.0 1.59809089 0.0
Si 6.781222749999999 8.203092 8.097411750000001 0.0 1.59809089 0.0
Si 2.734364 2.734364 0.0 0.0 1.59809089 0.0
Si 3.6093604999999997 2.734364 5.3982745 0.0 1.59809089 0.0
Si 2.734364 8.203092 0.0 0.0 1.59809089 0.0
Si 3.6093604999999997 8.203092 5.3982745 0.0 1.59809089 0.0
Si 8.203092 2.734364 0.0 0.0 1.59809089 0.0
Si 9.0780885 2.734364 5.3982745 0.0 1.59809089 0.0
Si 8.203092 8.203092 0.0 0.0 1.59809089 0.0
Si 9.0780885 8.203092 5.3982745 0.0 1.59809089 0.0
Si 4.757793375000001 1.367182 4.0487058750000005 0.0 -1.59809089 0.0
Si 5.632789875 1.367182 9.446980375000003 0.0 -1.59809089 0.0
Si 4.757793375000001 6.835909999999999 4.0487058750000005 0.0 -1.59809089 0.0
Si 5.632789875 6.835909999999999 9.446980375000003 0.0 -1.59809089 0.0
Si 10.226521374999999 1.367182 4.0487058750000005 0.0 -1.59809089 0.0
Si 11.101517874999997 1.367182 9.446980375000003 0.0 -1.59809089 0.0
Si 10.226521374999999 6.835909999999999 4.0487058750000005 0.0 -1.59809089 0.0
Si 11.101517874999997 6.835909999999999 9.446980375000003 0.0 -1.59809089 0.0
Si 4.3202951249999995 4.101546 1.349568625 0.0 -1.59809089 0.0
Si 5.195291624999999 4.101546 6.747843125 0.0 -1.59809089 0.0
Si 4.3202951249999995 9.570274 1.349568625 0.0 -1.59809089 0.0
Si 5.195291624999999 9.570274 6.747843125 0.0 -1.59809089 0.0
Si 9.789023125000002 4.101546 1.349568625 0.0 -1.59809089 0.0
Si 10.664019625000002 4.101546 6.747843125 0.0 -1.59809089 0.0
Si 9.789023125000002 9.570274 1.349568625 0.0 -1.59809089 0.0
Si 10.664019625000002 9.570274 6.747843125 0.0 -1.59809089 0.0
Si 1.5859311249999999 1.367182 1.349568625 0.0 -1.59809089 0.0
Si 2.460927625 1.367182 6.747843125 0.0 -1.59809089 0.0
Si 1.5859311249999999 6.835909999999999 1.349568625 0.0 -1.59809089 0.0
Si 2.460927625 6.835909999999999 6.747843125 0.0 -1.59809089 0.0
Si 7.054659124999999 1.367182 1.349568625 0.0 -1.59809089 0.0
Si 7.929655624999999 1.367182 6.747843125 0.0 -1.59809089 0.0
Si 7.054659124999999 6.835909999999999 1.349568625 0.0 -1.59809089 0.0
Si 7.929655624999999 6.835909999999999 6.747843125 0.0 -1.59809089 0.0
64
Lattice="10.937456 0.0 0.0 1.749993 10.796549 0.0 0.0 0.0 10.937456" pbc="T T T" Properties=species:S:1:pos:R:3:forces:R:3 energy=-336.33758092 stress="13317.630720000001 0.0 0.0 0.0 66310.86727 -163470.38602 0.0 -163470.38602 27962.59441"
Si 0.0 0.0 0.0 0.0 0.0 1.59809365
Si 0.0 0.0 5.468728 0.0 0.0 1.59809365
Si 0.8749965 5.3982745 0.0 0.0 0.0 1.59809365
Si 0.8749965 5.3982745 5.468728 0.0 0.0 1.59809365
Si 5.468728 0.0 0.0 0.0 0.0 1.59809365
Si 5.468728 0.0 5.468728 0.0 0.0 1.59809365
Si 6.3437244999999995 5.3982745 0.0 0.0 0.0 1.59809365
Si 6.3437244999999995 5.3982745 5.468728 0.0 0.0 1.59809365
Si 2.023429375 4.0487058750000005 4.101546 0.0 0.0 -1.59809365
Si 2.023429375 4.0487058750000005 9.570274 0.0 0.0 -1.59809365
Si 2.8984258749999996 9.446980375000003 4.101546 0.0 0.0 -1.59809365
Si 2.8984258749999996 9.446980375000003 9.570274 0.0 0.0 -1.59809365
Si 7.492157375 4.0487058750000005 4.101546 0.0 0.0 -1.59809365
Si 7.492157375 4.0487058750000005 9.570274 0.0 0.0 -1.59809365
Si 8.367153875 9.446980375000003 4.101546 0.0 0.0 -1.59809365
Si 8.367153875 9.446980375000003 9.570274 0.0 0.0 -1.59809365
Si 2.734364 0.0 2.734364 0.0 0.0 1.59809365
Si 2.734364 0.0 8.203092 0.0 0.0 1.59809365
Si 3.6093604999999997 5.3982745 2.734364 0.0 0.0 1.59809365
Si 3.6093604999999997 5.3982745 8.203092 0.0 0.0 1.59809365
Si 8.203092 0.0 2.734364 0.0 0.0 1.59809365
Si 8.203092 0.0 8.203092 0.0 0.0 1.59809365
Si 9.0780885 5.3982745 2.734364 0.0 0.0 1.59809365
Si 9.0780885 5.3982745 8.203092 0.0 0.0 1.59809365
Si 0.43749825 2.69913725 2.734364 0.0 0.0 1.59809365
Si 0.43749825 2.69913725 8.203092 0.0 0.0 1.59809365
Si 1.3124947500000002 8.097411750000001 2.734364 0.0 0.0 1.59809365
Si 1.3124947500000002 8.097411750000001 8.203092 0.0 0.0 1.59809365
Si 5.9062262500000005 2.69913725 2.734364 0.0 0.0 1.59809365
Si 5.9062262500000005 2.69913725 8.203092 0.0 0.0 1.59809365
Si 6.781222749999999 8.097411750000001 2.734364 0.0 0.0 1.59809365
Si 6.781222749999999 8.097411750000001 8.203092 0.0 0.0 1.59809365
Si 3.1718622499999998 2.69913725 0.0 0.0 0.0 1.59809365
Si 3.1718622499999998 2.69913725 5.468728 0.0 0.0 1.59809365
Si 4.04685875 8.097411750000001 0.0 0.0 0.0 1.59809365
Si 4.04685875 8.097411750000001 5.468728 0.0 0.0 1.59809365
Si 8.640590249999999 2.69913725 0.0 0.0 0.0 1.59809365
Si 8.640590249999999 2.69913725 5.468728 0.0 0.0 1.59809365
Si 9.515586750000002 8.097411750000001 0.0 0.0 0.0 1.59809365
Si 9.515586750000002 8.097411750000001 5.468728 0.0 0.0 1.59809365
Si 4.3202951249999995 1.349568625 4.101546 0.0 0.0 -1.59809365
Si 4.3202951249999995 1.349568625 9.570274 0.0 0.0 -1.59809365
Si 5.195291624999999 6.747843125 4.101546 0.0 0.0 -1.59809365
Si 5.195291624999999 6.747843125 9.570274 0.0 0.0 -1.59809365
Si 9.789023125000002 1.349568625 4.101546 0.0 0.0 -1.59809365
Si 9.789023125000002 1.349568625 9.570274 0.0 0.0 -1.59809365
Si 10.664019625000002 6.747843125 4.101546 0.0 0.0 -1.59809365
Si 10.664019625000002 6.747843125 9.570274 0.0 0.0 -1.59809365
Si 4.757793375000001 4.0487058750000005 1.367182 0.0 0.0 -1.59809365
Si 4.757793375000001 4.0487058750000005 6.835909999999999 0.0 0.0 -1.59809365
Si 5.632789875 9.446980375000003 1.367182 0.0 0.0 -1.59809365
Si 5.632789875 9.446980375000003 6.835909999999999 0.0 0.0 -1.59809365
Si 10.226521374999999 4.0487058750000005 1.367182 0.0 0.0 -1.59809365
Si 10.226521374999999 4.0487058750000005 6.835909999999999 0.0 0.0 -1.59809365
Si 11.101517874999997 9.446980375000003 1.367182 0.0 0.0 -1.59809365
Si 11.101517874999997 9.446980375000003 6.835909999999999 0.0 0.0 -1.59809365
Si 1.5859311249999999 1.349568625 1.367182 0.0 0.0 -1.59809365
Si 1.5859311249999999 1.349568625 6.835909999999999 0.0 0.0 -1.59809365
Si 2.460927625 6.747843125 1.367182 0.0 0.0 -1.59809365
Si 2.460927625 6.747843125 6.835909999999999 0.0 0.0 -1.59809365
Si 7.054659124999999 1.349568625 1.367182 0.0 0.0 -1.59809365
Si 7.054659124999999 1.349568625 6.835909999999999 0.0 0.0 -1.59809365
Si 7.929655624999999 6.747843125 1.367182 0.0 0.0 -1.59809365
Si 7.929655624999999 6.747843125 6.835909999999999 0.0 0.0 -1.59809365
64
Lattice="10.937456 0.0 0.0 1.312495 10.858421 0.0 0.0 0.0 10.937456" pbc="T T T" Properties=species:S:1:pos:R:3:forces:R:3 energy=-341.22165766 stress="7528.04416 0.0 0.0 0.0 36759.10881 -120915.96005 0.0 -120915.96005 15554.50776"
Si 0.0 0.0 0.0 0.0 0.0 1.14476108
Si 0.0 0.0 5.468728 0.0 0.0 1.14476108
Si 0.6562474999999999 5.429210499999999 0.0 0.0 0.0 1.14476108
Si 0.6562474999999999 5.429210499999999 5.468728 0.0 0.0 1.14476108
Si 5.468728 0.0 0.0 0.0 0.0 1.14476108
Si 5.468728 0.0 5.468728 0.0 0.0 1.14476108
Si 6.1249755 5.429210499999999 0.0 0.0 0.0 1.14476108
Si 6.1249755 5.429210499999999 5.468728 0.0 0.0 1.14476108
Si 1.8593676250000002 4.071907875 4.101546 0.0 0.0 -1.14476108
Si 1.8593676250000002 4.071907875 9.570274 0.0 0.0 -1.14476108
Si 2.515615125 9.501118375 4.101546 0.0 0.0 -1.14476108
Si 2.515615125 9.501118375 9.570274 0.0 0.0 -1.14476108
Si 7.328095625000001 4.071907875 4.101546 0.0 0.0 -1.14476108
Si 7.328095625000001 4.071907875 9.570274 0.0 0.0 -1.14476108
Si 7.984343125000001 9.501118375 4.101546 0.0 0.0 -1.14476108
Si 7.984343125000001 9.501118375 9.570274 0.0 0.0 -1.14476108
Si 2.734364 0.0 2.734364 0.0 0.0 1.14476108
Si 2.734364 0.0 8.203092 0.0 0.0 1.14476108
Si 3.3906115 5.429210499999999 2.734364 0.0 0.0 1.14476108
Si 3.3906115 5.429210499999999 8.203092 0.0 0.0 1.14476108
Si 8.203092 0.0 2.734364 0.0 0.0 1.14476108
Si 8.203092 0.0 8.203092 0.0 0.0 1.14476108
Si 8.859339499999999 5.429210499999999 2.734364 0.0 0.0 1.14476108
Si 8.859339499999999 5.429210499999999 8.203092 0.0 0.0 1.14476108
Si 0.32812374999999994 2.7146052499999995 2.734364 0.0 0.0 1.14476108
Si 0.32812374999999994 2.7146052499999995 8.203092 0.0 0.0 1.14476108
Si 0.9843712499999999 8.14381575 2.734364 0.0 0.0 1.14476108
Si 0.9843712499999999 8.14381575 8.203092 0.0 0.0 1.14476108
Si 5.796851749999999 2.7146052499999995 2.734364 0.0 0.0 1.14476108
Si 5.796851749999999 2.7146052499999995 8.203092 0.0 0.0 1.14476108
Si 6.453099249999999 8.14381575 2.734364 0.0 0.0 1.14476108
Si 6.453099249999999 8.14381575 8.203092 0.0 0.0 1.14476108
Si 3.06248775 2.7146052499999995 0.0 0.0 0.0 1.14476108
Si 3.06248775 2.7146052499999995 5.468728 0.0 0.0 1.14476108
Si 3.7187352500000004 8.14381575 0.0 0.0 0.0 1.14476108
Si 3.7187352500000004 8.14381575 5.468728 0.0 0.0 1.14476108
Si 8.53121575 2.7146052499999995 0.0 0.0 0.0 1.14476108
Si 8.53121575 2.7146052499999995 5.468728 0.0 0.0 1.14476108
Si 9.18746325 8.14381575 0.0 0.0 0.0 1.14476108
Si 9.18746325 8.14381575 5.468728 0.0 0.0 1.14476108
Si 4.265607875 1.3573026249999998 4.101546 0.0 0.0 -1.14476108
Si 4.265607875 1.3573026249999998 9.570274 0.0 0.0 -1.14476108
Si 4.921855375 6.786513125 4.101546 0.0 0.0 -1.14476108
Si 4.921855375 6.786513125 9.570274 0.0 0.0 -1.14476108
Si 9.734335875000001 1.3573026249999998 4.101546 0.0 0.0 -1.14476108
Si 9.734335875000001 1.3573026249999998 9.570274 0.0 0.0 -1.14476108
Si 10.390583375000002 6.786513125 4.101546 0.0 0.0 -1.14476108
Si 10.390583375000002 6.786513125 9.570274 0.0 0.0 -1.14476108
Si 4.593731625 4.071907875 1.367182 0.0 0.0 -1.14476108
Si 4.593731625 4.071907875 6.835909999999999 0.0 0.0 -1.14476108
Si 5.249979125000001 9.501118375 1.367182 0.0 0.0 -1.14476108
Si 5.249979125000001 9.501118375 6.835909999999999 0.0 0.0 -1.14476108
Si 10.062459624999999 4.071907875 1.367182 0.0 0.0 -1.14476108
Si 10.062459624999999 4.071907875 6.835909999999999 0.0 0.0 -1.14476108
Si 10.718707125000002 9.501118375 1.367182 0.0 0.0 -1.14476108
Si 10.718707125000002 9.501118375 6.835909999999999 0.0 0.0 -1.14476108
Si 1.531243875 1.3573026249999998 1.367182 0.0 0.0 -1.14476108
Si 1.531243875 1.3573026249999998 6.835909999999999 0.0 0.0 -1.14476108
Si 2.187491375 6.786513125 1.367182 0.0 0.0 -1.14476108
Si 2.187491375 6.786513125 6.835909999999999 0.0 0.0 -1.14476108
Si 6.999971874999999 1.3573026249999998 1.367182 0.0 0.0 -1.14476108
Si 6.999971874999999 1.3573026249999998 6.835909999999999 0.0 0.0 -1.14476108
Si 7.656219374999999 6.786513125 1.367182 0.0 0.0 -1.14476108
Si 7.656219374999999 6.786513125 6.835909999999999 0.0 0.0 -1.14476108
64
Lattice="10.937456 0.0 0.0 0.0 10.937456 0.0 2.187491 0.0 10.716475" pbc="T T T" Properties=species:S:1:pos:R:3:forces:R:3 energy=-329.81981936 stress="19937.44089 -206301.68176 0.0 -206301.68176 44580.152200000004 0.0 0.0 0.0 104159.74693"
Si 0.0 0.0 0.0 0.0 2.13797706 0.0
Si 1.0937454999999998 0.0 5.3582374999999995 0.0 2.13797706 0.0
Si 0.0 5.468728 0.0 0.0 2.13797706 0.0
Si 1.0937454999999998 5.468728 5.3582374999999995 0.0 2.13797706 0.0
Si 5.468728 0.0 0.0 0.0 2.13797706 0.0
Si 6.562473499999999 0.0 5.3582374999999995 0.0 2.13797706 0.0
Si 5.468728 5.468728 0.0 0.0 2.13797706 0.0
Si 6.562473499999999 5.468728 5.3582374999999995 0.0 2.13797706 0.0
Si 2.1874911249999998 4.101546 4.018678125 0.0 -2.13797706 0.0
Si 3.2812366249999996 4.101546 9.376915624999999 0.0 -2.13797706 0.0
Si 2.1874911249999998 9.570274 4.018678125 0.0 -2.13797706 0.0
Si 3.2812366249999996 9.570274 9.376915624999999 0.0 -2.13797706 0.0
Si 7.656219124999999 4.101546 4.018678125 0.0 -2.13797706 0.0
Si 8.749964624999999 4.101546 9.376915624999999 0.0 -2.13797706 0.0
Si 7.656219124999999 9.570274 4.018678125 0.0 -2.13797706 0.0
Si 8.749964624999999 9.570274 9.376915624999999 0.0 -2.13797706 0.0
Si 3.2812367499999997 0.0 2.6791187499999998 0.0 2.13797706 0.0
Si 4.3749822499999995 0.0 8.03735625 0.0 2.13797706 0.0
Si 3.2812367499999997 5.468728 2.6791187499999998 0.0 2.13797706 0.0
Si 4.3749822499999995 5.468728 8.03735625 0.0 2.13797706 0.0
Si 8.74996475 0.0 2.6791187499999998 0.0 2.13797706 0.0
Si 9.843710249999999 0.0 8.03735625 0.0 2.13797706 0.0
Si 8.74996475 5.468728 2.6791187499999998 0.0 2.13797706 0.0
Si 9.843710249999999 5.468728 8.03735625 0.0 2.13797706 0.0
Si 0.5468727499999999 2.734364 2.6791187499999998 0.0 2.13797706 0.0
Si 1.6406182499999997 2.734364 8.03735625 0.0 2.13797706 0.0
Si 0.5468727499999999 8.203092 2.6791187499999998 0.0 2.13797706 0.0
Si 1.6406182499999997 8.203092 8.03735625 0.0 2.13797706 0.0
Si 6.01560075 2.734364 2.6791187499999998 0.0 2.13797706 0.0
Si 7.10934625 2.734364 8.03735625 0.0 2.13797706 0.0
Si 6.01560075 8.203092 2.6791187499999998 0.0 2.13797706 0.0
Si 7.10934625 8.203092 8.03735625 0.0 2.13797706 0.0
Si 2.734364 2.734364 0.0 0.0 2.13797706 0.0
Si 3.8281094999999996 2.734364 5.3582374999999995 0.0 2.13797706 0.0
Si 2.734364 8.203092 0.0 0.0 2.13797706 0.0
Si 3.8281094999999996 8.203092 5.3582374999999995 0.0 2.13797706 0.0
Si 8.203092 2.734364 0.0 0.0 2.13797706 0.0
Si 9.2968375 2.734364 5.3582374999999995 0.0 2.13797706 0.0
Si 8.203092 8.203092 0.0 0.0 2.13797706 0.0
Si 9.2968375 8.203092 5.3582374999999995 0.0 2.13797706 0.0
Si 4.9218551249999996 1.367182 4.018678125 0.0 -2.13797706 0.0
Si 6.015600624999999 1.367182 9.376915624999999 0.0 -2.13797706 0.0
Si 4.9218551249999996 6.835909999999999 4.018678125 0.0 -2.13797706 0.0
Si 6.015600624999999 6.835909999999999 9.376915624999999 0.0 -2.13797706 0.0
Si 10.390583125 1.367182 4.018678125 0.0 -2.13797706 0.0
Si 11.484328625 1.367182 9.376915624999999 0.0 -2.13797706 0.0
Si 10.390583125 6.835909999999999 4.018678125 0.0 -2.13797706 0.0
Si 11.484328625 6.835909999999999 9.376915624999999 0.0 -2.13797706 0.0
Si 4.374982375 4.101546 1.3395593749999999 0.0 -2.13797706 0.0
Si 5.468727875 4.101546 6.697796875000001 0.0 -2.13797706 0.0
Si 4.374982375 9.570274 1.3395593749999999 0.0 -2.13797706 0.0
Si 5.468727875 9.570274 6.697796875000001 0.0 -2.13797706 0.0
Si 9.843710374999999 4.101546 1.3395593749999999 0.0 -2.13797706 0.0
Si 10.937455875 4.101546 6.697796875000001 0.0 -2.13797706 0.0
Si 9.843710374999999 9.570274 1.3395593749999999 0.0 -2.13797706 0.0
Si 10.937455875 9.570274 6.697796875000001 0.0 -2.13797706 0.0
Si 1.6406183749999999 1.367182 1.3395593749999999 0.0 -2.13797706 0.0
Si 2.734363875 1.367182 6.697796875000001 0.0 -2.13797706 0.0
Si 1.6406183749999999 6.835909999999999 1.3395593749999999 0.0 -2.13797706 0.0
Si 2.734363875 6.835909999999999 6.697796875000001 0.0 -2.13797706 0.0
Si 7.109346374999999 1.367182 1.3395593749999999 0.0 -2.13797706 0.0
Si 8.203091875000002 1.367182 6.697796875000001 0.0 -2.13797706 0.0
Si 7.109346374999999 6.835909999999999 1.3395593749999999 0.0 -2.13797706 0.0
Si 8.203091875000002 6.835909999999999 6.697796875000001 0.0 -2.13797706 0.0
64
Lattice="10.937456 0.0 0.0 0.0 10.937456 0.0 0.0 0.0 11.780001" pbc="T T T" Properties=species:S:1:pos:R:3:forces:R:3 energy=-343.71132573 stress="-30835.402009999998 0.0 0.0 0.0 -30835.402009999998 0.0 0.0 0.0 -108318.51662"
Si 0.0 0.0 0.0 0.0 0.0 0.0