64
Lattice="10.937456 0.0 0.0 0.0 10.937456 0.0 0.0 0.0 10.260243" pbc="T T T" Properties=species:S:1:pos:R:3:forces:R:3 energy=-344.74080046 stress="45756.7847 0.0 0.0 0.0 45756.7847 0.0 0.0 0.0 99431.95335"
Si 0.0 0.0 0.0 0.0 0.0 0.0
Si 0.0 0.0 5.1301215 0.0 0.0 0.0
Si 0.0 5.468728 0.0 0.0 0.0 0.0
Si 0.0 5.468728 5.1301215 0.0 0.0 0.0
Si 5.468728 0.0 0.0 0.0 0.0 0.0
Si 5.468728 0.0 5.1301215 0.0 0.0 0.0
Si 5.468728 5.468728 0.0 0.0 0.0 0.0
Si 5.468728 5.468728 5.1301215 0.0 0.0 0.0
Si 1.367182 4.101546 3.8475911249999997 0.0 0.0 0.0
Si 1.367182 4.101546 8.977712624999999 0.0 0.0 0.0
Si 1.367182 9.570274 3.8475911249999997 0.0 0.0 0.0
Si 1.367182 9.570274 8.977712624999999 0.0 0.0 0.0
Si 6.835909999999999 4.101546 3.8475911249999997 0.0 0.0 0.0
Si 6.835909999999999 4.101546 8.977712624999999 0.0 0.0 0.0
Si 6.835909999999999 9.570274 3.8475911249999997 0.0 0.0 0.0
Si 6.835909999999999 9.570274 8.977712624999999 0.0 0.0 0.0
Si 2.734364 0.0 2.56506075 0.0 0.0 0.0
Si 2.734364 0.0 7.695182249999999 0.0 0.0 0.0
Si 2.734364 5.468728 2.56506075 0.0 0.0 0.0
Si 2.734364 5.468728 7.695182249999999 0.0 0.0 0.0
Si 8.203092 0.0 2.56506075 0.0 0.0 0.0
Si 8.203092 0.0 7.695182249999999 0.0 0.0 0.0
Si 8.203092 5.468728 2.56506075 0.0 0.0 0.0
Si 8.203092 5.468728 7.695182249999999 0.0 0.0 0.0
Si 0.0 2.734364 2.56506075 0.0 0.0 0.0
Si 0.0 2.734364 7.695182249999999 0.0 0.0 0.0
Si 0.0 8.203092 2.56506075 0.0 0.0 0.0
Si 0.0 8.203092 7.695182249999999 0.0 0.0 0.0
Si 5.468728 2.734364 2.56506075 0.0 0.0 0.0
Si 5.468728 2.734364 7.695182249999999 0.0 0.0 0.0
Si 5.468728 8.203092 2.56506075 0.0 0.0 0.0
Si 5.468728 8.203092 7.695182249999999 0.0 0.0 0.0
Si 2.734364 2.734364 0.0 0.0 0.0 0.0
Si 2.734364 2.734364 5.1301215 0.0 0.0 0.0
Si 2.734364 8.203092 0.0 0.0 0.0 0.0
Si 2.734364 8.203092 5.1301215 0.0 0.0 0.0
Si 8.203092 2.734364 0.0 0.0 0.0 0.0
Si 8.203092 2.734364 5.1301215 0.0 0.0 0.0
Si 8.203092 8.203092 0.0 0.0 0.0 0.0
Si 8.203092 8.203092 5.1301215 0.0 0.0 0.0
Si 4.101546 1.367182 3.8475911249999997 0.0 0.0 0.0
Si 4.101546 1.367182 8.977712624999999 0.0 0.0 0.0
Si 4.101546 6.835909999999999 3.8475911249999997 0.0 0.0 0.0
Si 4.101546 6.835909999999999 8.977712624999999 0.0 0.0 0.0
Si 9.570274 1.367182 3.8475911249999997 0.0 0.0 0.0
Si 9.570274 1.367182 8.977712624999999 0.0 0.0 0.0
Si 9.570274 6.835909999999999 3.8475911249999997 0.0 0.0 0.0
Si 9.570274 6.835909999999999 8.977712624999999 0.0 0.0 0.0
Si 4.101546 4.101546 1.282530375 0.0 0.0 0.0
Si 4.101546 4.101546 6.412651875000001 0.0 0.0 0.0
Si 4.101546 9.570274 1.282530375 0.0 0.0 0.0
Si 4.101546 9.570274 6.412651875000001 0.0 0.0 0.0
Si 9.570274 4.101546 1.282530375 0.0 0.0 0.0
Si 9.570274 4.101546 6.412651875000001 0.0 0.0 0.0
Si 9.570274 9.570274 1.282530375 0.0 0.0 0.0
Si 9.570274 9.570274 6.412651875000001 0.0 0.0 0.0
Si 1.367182 1.367182 1.282530375 0.0 0.0 0.0
Si 1.367182 1.367182 6.412651875000001 0.0 0.0 0.0
Si 1.367182 6.835909999999999 1.282530375 0.0 0.0 0.0
Si 1.367182 6.835909999999999 6.412651875000001 0.0 0.0 0.0
Si 6.835909999999999 1.367182 1.282530375 0.0 0.0 0.0
Si 6.835909999999999 1.367182 6.412651875000001 0.0 0.0 0.0
Si 6.835909999999999 6.835909999999999 1.282530375 0.0 0.0 0.0
Si 6.835909999999999 6.835909999999999 6.412651875000001 0.0 0.0 0.0
64
Lattice="10.937456 0.0 0.0 0.0 10.260243 0.0 0.0 0.0 10.937456" pbc="T T T" Properties=species:S:1:pos:R:3:forces:R:3 energy=-344.74080047 stress="45756.65621 0.0 0.0 0.0 99431.96935 0.0 0.0 0.0 45756.65621"
Si 0.0 0.0 0.0 0.0 0.0 0.0
Si 0.0 0.0 5.468728 0.0 0.0 0.0
Si 0.0 5.1301215 0.0 0.0 0.0 0.0
Si 0.0 5.1301215 5.468728 0.0 0.0 0.0
Si 5.468728 0.0 0.0 0.0 0.0 0.0
Si 5.468728 0.0 5.468728 0.0 0.0 0.0
Si 5.468728 5.1301215 0.0 0.0 0.0 0.0
Si 5.468728 5.1301215 5.468728 0.0 0.0 0.0
Si 1.367182 3.8475911249999997 4.101546 0.0 0.0 0.0
Si 1.367182 3.8475911249999997 9.570274 0.0 0.0 0.0
Si 1.367182 8.977712624999999 4.101546 0.0 0.0 0.0
Si 1.367182 8.977712624999999 9.570274 0.0 0.0 0.0
Si 6.835909999999999 3.8475911249999997 4.101546 0.0 0.0 0.0
Si 6.835909999999999 3.8475911249999997 9.570274 0.0 0.0 0.0
Si 6.835909999999999 8.977712624999999 4.101546 0.0 0.0 0.0
Si 6.835909999999999 8.977712624999999 9.570274 0.0 0.0 0.0
Si 2.734364 0.0 2.734364 0.0 0.0 0.0
Si 2.734364 0.0 8.203092 0.0 0.0 0.0
Si 2.734364 5.1301215 2.734364 0.0 0.0 0.0
Si 2.734364 5.1301215 8.203092 0.0 0.0 0.0
Si 8.203092 0.0 2.734364 0.0 0.0 0.0
Si 8.203092 0.0 8.203092 0.0 0.0 0.0
Si 8.203092 5.1301215 2.734364 0.0 0.0 0.0
Si 8.203092 5.1301215 8.203092 0.0 0.0 0.0
Si 0.0 2.56506075 2.734364 0.0 0.0 0.0
Si 0.0 2.56506075 8.203092 0.0 0.0 0.0
Si 0.0 7.695182249999999 2.734364 0.0 0.0 0.0
Si 0.0 7.695182249999999 8.203092 0.0 0.0 0.0
Si 5.468728 2.56506075 2.734364 0.0 0.0 0.0
Si 5.468728 2.56506075 8.203092 0.0 0.0 0.0
Si 5.468728 7.695182249999999 2.734364 0.0 0.0 0.0
Si 5.468728 7.695182249999999 8.203092 0.0 0.0 0.0
Si 2.734364 2.56506075 0.0 0.0 0.0 0.0
Si 2.734364 2.56506075 5.468728 0.0 0.0 0.0
Si 2.734364 7.695182249999999 0.0 0.0 0.0 0.0
Si 2.734364 7.695182249999999 5.468728 0.0 0.0 0.0
Si 8.203092 2.56506075 0.0 0.0 0.0 0.0
Si 8.203092 2.56506075 5.468728 0.0 0.0 0.0
Si 8.203092 7.695182249999999 0.0 0.0 0.0 0.0
Si 8.203092 7.695182249999999 5.468728 0.0 0.0 0.0
Si 4.101546 1.282530375 4.101546 0.0 0.0 0.0
Si 4.101546 1.282530375 9.570274 0.0 0.0 0.0
Si 4.101546 6.412651875000001 4.101546 0.0 0.0 0.0
Si 4.101546 6.412651875000001 9.570274 0.0 0.0 0.0
Si 9.570274 1.282530375 4.101546 0.0 0.0 0.0
Si 9.570274 1.282530375 9.570274 0.0 0.0 0.0
Si 9.570274 6.412651875000001 4.101546 0.0 0.0 0.0
Si 9.570274 6.412651875000001 9.570274 0.0 0.0 0.0
Si 4.101546 3.8475911249999997 1.367182 0.0 0.0 0.0
Si 4.101546 3.8475911249999997 6.835909999999999 0.0 0.0 0.0
Si 4.101546 8.977712624999999 1.367182 0.0 0.0 0.0
Si 4.101546 8.977712624999999 6.835909999999999 0.0 0.0 0.0
Si 9.570274 3.8475911249999997 1.367182 0.0 0.0 0.0
Si 9.570274 3.8475911249999997 6.835909999999999 0.0 0.0 0.0
Si 9.570274 8.977712624999999 1.367182 0.0 0.0 0.0
Si 9.570274 8.977712624999999 6.835909999999999 0.0 0.0 0.0
Si 1.367182 1.282530375 1.367182 0.0 0.0 0.0
Si 1.367182 1.282530375 6.835909999999999 0.0 0.0 0.0
Si 1.367182 6.412651875000001 1.367182 0.0 0.0 0.0
Si 1.367182 6.412651875000001 6.835909999999999 0.0 0.0 0.0
Si 6.835909999999999 1.282530375 1.367182 0.0 0.0 0.0
Si 6.835909999999999 1.282530375 6.835909999999999 0.0 0.0 0.0
Si 6.835909999999999 6.412651875000001 1.367182 0.0 0.0 0.0
Si 6.835909999999999 6.412651875000001 6.835909999999999 0.0 0.0 0.0
64
Lattice="10.937456 0.0 0.0 0.0 10.937456 0.0 0.0 -1.312495 10.858421" pbc="T T T" Properties=species:S:1:pos:R:3:forces:R:3 energy=-341.22165747 stress="15554.378120000001 0.0 120915.82497999999 0.0 7528.02817 0.0 120915.82497999999 0.0 36759.06015999999"
Si 0.0 0.0 0.0 -1.14476008 0.0 0.0
Si 0.0 -0.6562474999999999 5.429210499999999 -1.14476008 0.0 0.0
Si 0.0 5.468728 0.0 -1.14476008 0.0 0.0
Si 0.0 4.8124804999999995 5.429210499999999 -1.14476008 0.0 0.0
Si 5.468728 0.0 0.0 -1.14476008 0.0 0.0
Si 5.468728 -0.6562474999999999 5.429210499999999 -1.14476008 0.0 0.0
Si 5.468728 5.468728 0.0 -1.14476008 0.0 0.0
Si 5.468728 4.8124804999999995 5.429210499999999 -1.14476008 0.0 0.0
Si 1.367182 3.609360375 4.071907875 1.14476008 0.0 0.0
Si 1.367182 2.953112875 9.501118375 1.14476008 0.0 0.0
Si 1.367182 9.078088375000002 4.071907875 1.14476008 0.0 0.0
Si 1.367182 8.421840875 9.501118375 1.14476008 0.0 0.0
Si 6.835909999999999 3.609360375 4.071907875 1.14476008 0.0 0.0
Si 6.835909999999999 2.953112875 9.501118375 1.14476008 0.0 0.0
Si 6.835909999999999 9.078088375000002 4.071907875 1.14476008 0.0 0.0
Si 6.835909999999999 8.421840875 9.501118375 1.14476008 0.0 0.0
Si 2.734364 -0.32812374999999994 2.7146052499999995 -1.14476008 0.0 0.0
Si 2.734364 -0.9843712499999999 8.14381575 -1.14476008 0.0 0.0
Si 2.734364 5.14060425 2.7146052499999995 -1.14476008 0.0 0.0
Si 2.734364 4.48435675 8.14381575 -1.14476008 0.0 0.0
Si 8.203092 -0.32812374999999994 2.7146052499999995 -1.14476008 0.0 0.0
Si 8.203092 -0.9843712499999999 8.14381575 -1.14476008 0.0 0.0
Si 8.203092 5.14060425 2.7146052499999995 -1.14476008 0.0 0.0
Si 8.203092 4.48435675 8.14381575 -1.14476008 0.0 0.0
Si 0.0 2.4062402499999997 2.7146052499999995 -1.14476008 0.0 0.0
Si 0.0 1.7499927499999999 8.14381575 -1.14476008 0.0 0.0
Si 0.0 7.87496825 2.7146052499999995 -1.14476008 0.0 0.0
Si 0.0 7.21872075 8.14381575 -1.14476008 0.0 0.0
Si 5.468728 2.4062402499999997 2.7146052499999995 -1.14476008 0.0 0.0
Si 5.468728 1.7499927499999999 8.14381575 -1.14476008 0.0 0.0
Si 5.468728 7.87496825 2.7146052499999995 -1.14476008 0.0 0.0
Si 5.468728 7.21872075 8.14381575 -1.14476008 0.0 0.0
Si 2.734364 2.734364 0.0 -1.14476008 0.0 0.0
Si 2.734364 2.0781164999999997 5.429210499999999 -1.14476008 0.0 0.0
Si 2.734364 8.203092 0.0 -1.14476008 0.0 0.0
Si 2.734364 7.5468445 5.429210499999999 -1.14476008 0.0 0.0
Si 8.203092 2.734364 0.0 -1.14476008 0.0 0.0
Si 8.203092 2.0781164999999997 5.429210499999999 -1.14476008 0.0 0.0
Si 8.203092 8.203092 0.0 -1.14476008 0.0 0.0
Si 8.203092 7.5468445 5.429210499999999 -1.14476008 0.0 0.0
Si 4.101546 0.8749963749999999 4.071907875 1.14476008 0.0 0.0
Si 4.101546 0.21874887499999993 9.501118375 1.14476008 0.0 0.0
Si 4.101546 6.343724374999998 4.071907875 1.14476008 0.0 0.0
Si 4.101546 5.687476874999998 9.501118375 1.14476008 0.0 0.0
Si 9.570274 0.8749963749999999 4.071907875 1.14476008 0.0 0.0
Si 9.570274 0.21874887499999993 9.501118375 1.14476008 0.0 0.0
Si 9.570274 6.343724374999998 4.071907875 1.14476008 0.0 0.0
Si 9.570274 5.687476874999998 9.501118375 1.14476008 0.0 0.0
Si 4.101546 3.937484125 1.3573026249999998 1.14476008 0.0 0.0
Si 4.101546 3.281236625 6.786513125 1.14476008 0.0 0.0
Si 4.101546 9.406212125 1.3573026249999998 1.14476008 0.0 0.0
Si 4.101546 8.749964624999997 6.786513125 1.14476008 0.0 0.0
Si 9.570274 3.937484125 1.3573026249999998 1.14476008 0.0 0.0
Si 9.570274 3.281236625 6.786513125 1.14476008 0.0 0.0
Si 9.570274 9.406212125 1.3573026249999998 1.14476008 0.0 0.0
Si 9.570274 8.749964624999997 6.786513125 1.14476008 0.0 0.0
Si 1.367182 1.2031201249999999 1.3573026249999998 1.14476008 0.0 0.0
Si 1.367182 0.5468726249999999 6.786513125 1.14476008 0.0 0.0
Si 1.367182 6.6718481249999995 1.3573026249999998 1.14476008 0.0 0.0
Si 1.367182 6.015600624999999 6.786513125 1.14476008 0.0 0.0
Si 6.835909999999999 1.2031201249999999 1.3573026249999998 1.14476008 0.0 0.0
Si 6.835909999999999 0.5468726249999999 6.786513125 1.14476008 0.0 0.0
Si 6.835909999999999 6.6718481249999995 1.3573026249999998 1.14476008 0.0 0.0
Si 6.835909999999999 6.015600624999999 6.786513125 1.14476008 0.0 0.0
64
Lattice="10.260243 0.0 0.0 0.0 10.937456 0.0 0.0 0.0 10.937456" pbc="T T T" Properties=species:S:1:pos:R:3:forces:R:3 energy=-344.74080048 stress="99432.17523 0.0 0.0 0.0 45756.75106 0.0 0.0 0.0 45756.75106"
Si 0.0 0.0 0.0 0.0 0.0 0.0
Si 0.0 0.0 5.468728 0.0 0.0 0.0
Si 0.0 5.468728 0.0 0.0 0.0 0.0
Si 0.0 5.468728 5.468728 0.0 0.0 0.0
Si 5.1301215 0.0 0.0 0.0 0.0 0.0
Si 5.1301215 0.0 5.468728 0.0 0.0 0.0
Si 5.1301215 5.468728 0.0 0.0 0.0 0.0
Si 5.1301215 5.468728 5.468728 0.0 0.0 0.0
Si 1.282530375 4.101546 4.101546 0.0 0.0 0.0
Si 1.282530375 4.101546 9.570274 0.0 0.0 0.0
Si 1.282530375 9.570274 4.101546 0.0 0.0 0.0
Si 1.282530375 9.570274 9.570274 0.0 0.0 0.0
Si 6.412651875000001 4.101546 4.101546 0.0 0.0 0.0
Si 6.412651875000001 4.101546 9.570274 0.0 0.0 0.0
Si 6.412651875000001 9.570274 4.101546 0.0 0.0 0.0
Si 6.412651875000001 9.570274 9.570274 0.0 0.0 0.0
Si 2.56506075 0.0 2.734364 0.0 0.0 0.0
Si 2.56506075 0.0 8.203092 0.0 0.0 0.0
Si 2.56506075 5.468728 2.734364 0.0 0.0 0.0
Si 2.56506075 5.468728 8.203092 0.0 0.0 0.0
Si 7.695182249999999 0.0 2.734364 0.0 0.0 0.0
Si 7.695182249999999 0.0 8.203092 0.0 0.0 0.0
Si 7.695182249999999 5.468728 2.734364 0.0 0.0 0.0
Si 7.695182249999999 5.468728 8.203092 0.0 0.0 0.0
Si 0.0 2.734364 2.734364 0.0 0.0 0.0
Si 0.0 2.734364 8.203092 0.0 0.0 0.0
Si 0.0 8.203092 2.734364 0.0 0.0 0.0
Si 0.0 8.203092 8.203092 0.0 0.0 0.0
Si 5.1301215 2.734364 2.734364 0.0 0.0 0.0
Si 5.1301215 2.734364 8.203092 0.0 0.0 0.0
Si 5.1301215 8.203092 2.734364 0.0 0.0 0.0
Si 5.1301215 8.203092 8.203092 0.0 0.0 0.0
Si 2.56506075 2.734364 0.0 0.0 0.0 0.0
Si 2.56506075 2.734364 5.468728 0.0 0.0 0.0
Si 2.56506075 8.203092 0.0 0.0 0.0 0.0
Si 2.56506075 8.203092 5.468728 0.0 0.0 0.0
Si 7.695182249999999 2.734364 0.0 0.0 0.0 0.0
Si 7.695182249999999 2.734364 5.468728 0.0 0.0 0.0
Si 7.695182249999999 8.203092 0.0 0.0 0.0 0.0
Si 7.695182249999999 8.203092 5.468728 0.0 0.0 0.0
Si 3.8475911249999997 1.367182 4.101546 0.0 0.0 0.0
Si 3.8475911249999997 1.367182 9.570274 0.0 0.0 0.0
Si 3.8475911249999997 6.835909999999999 4.101546 0.0 0.0 0.0
Si 3.8475911249999997 6.835909999999999 9.570274 0.0 0.0 0.0
Si 8.977712624999999 1.367182 4.101546 0.0 0.0 0.0
Si 8.977712624999999 1.367182 9.570274 0.0 0.0 0.0
Si 8.977712624999999 6.835909999999999 4.101546 0.0 0.0 0.0
Si 8.977712624999999 6.835909999999999 9.570274 0.0 0.0 0.0
Si 3.8475911249999997 4.101546 1.367182 0.0 0.0 0.0
Si 3.8475911249999997 4.101546 6.835909999999999 0.0 0.0 0.0
Si 3.8475911249999997 9.570274 1.367182 0.0 0.0 0.0
Si 3.8475911249999997 9.570274 6.835909999999999 0.0 0.0 0.0
Si 8.977712624999999 4.101546 1.367182 0.0 0.0 0.0
Si 8.977712624999999 4.101546 6.835909999999999 0.0 0.0 0.0
Si 8.977712624999999 9.570274 1.367182 0.0 0.0 0.0
Si 8.977712624999999 9.570274 6.835909999999999 0.0 0.0 0.0
Si 1.282530375 1.367182 1.367182 0.0 0.0 0.0
Si 1.282530375 1.367182 6.835909999999999 0.0 0.0 0.0
Si 1.282530375 6.835909999999999 1.367182 0.0 0.0 0.0
Si 1.282530375 6.835909999999999 6.835909999999999 0.0 0.0 0.0
Si 6.412651875000001 1.367182 1.367182 0.0 0.0 0.0
Si 6.412651875000001 1.367182 6.835909999999999 0.0 0.0 0.0
Si 6.412651875000001 6.835909999999999 1.367182 0.0 0.0 0.0
Si 6.412651875000001 6.835909999999999 6.835909999999999 0.0 0.0 0.0
64
Lattice="10.937456 0.0 0.0 0.0 10.937456 0.0 -1.312495 0.0 10.858421" pbc="T T T" Properties=species:S:1:pos:R:3:forces:R:3 energy=-341.22165734 stress="7528.13856 120915.73393999999 0.0 120915.73393999999 15554.38239 0.0 0.0 0.0 36759.14855"
Si 0.0 0.0 0.0 0.0 -1.14476111 0.0
Si -0.6562474999999999 0.0 5.429210499999999 0.0 -1.14476111 0.0
Si 0.0 5.468728 0.0 0.0 -1.14476111 0.0
Si -0.6562474999999999 5.468728 5.429210499999999 0.0 -1.14476111 0.0
Si 5.468728 0.0 0.0 0.0 -1.14476111 0.0
Si 4.8124804999999995 0.0 5.429210499999999 0.0 -1.14476111 0.0
Si 5.468728 5.468728 0.0 0.0 -1.14476111 0.0
Si 4.8124804999999995 5.468728 5.429210499999999 0.0 -1.14476111 0.0
Si 0.8749963749999999 4.101546 4.071907875 0.0 1.14476111 0.0
Si 0.21874887499999993 4.101546 9.501118375 0.0 1.14476111 0.0
Si 0.8749963749999999 9.570274 4.071907875 0.0 1.14476111 0.0
Si 0.21874887499999993 9.570274 9.501118375 0.0 1.14476111 0.0
Si 6.343724374999998 4.101546 4.071907875 0.0 1.14476111 0.0
Si 5.687476874999998 4.101546 9.501118375 0.0 1.14476111 0.0
Si 6.343724374999998 9.570274 4.071907875 0.0 1.14476111 0.0
Si 5.687476874999998 9.570274 9.501118375 0.0 1.14476111 0.0
Si 2.4062402499999997 0.0 2.7146052499999995 0.0 -1.14476111 0.0
Si 1.7499927499999999 0.0 8.14381575 0.0 -1.14476111 0.0
Si 2.4062402499999997 5.468728 2.7146052499999995 0.0 -1.14476111 0.0
Si 1.7499927499999999 5.468728 8.14381575 0.0 -1.14476111 0.0
Si 7.87496825 0.0 2.7146052499999995 0.0 -1.14476111 0.0
Si 7.21872075 0.0 8.14381575 0.0 -1.14476111 0.0
Si 7.87496825 5.468728 2.7146052499999995 0.0 -1.14476111 0.0
Si 7.21872075 5.468728 8.14381575 0.0 -1.14476111 0.0
Si -0.32812374999999994 2.734364 2.7146052499999995 0.0 -1.14476111 0.0
Si -0.9843712499999999 2.734364 8.14381575 0.0 -1.14476111 0.0
Si -0.32812374999999994 8.203092 2.7146052499999995 0.0 -1.14476111 0.0
Si -0.9843712499999999 8.203092 8.14381575 0.0 -1.14476111 0.0
Si 5.14060425 2.734364 2.7146052499999995 0.0 -1.14476111 0.0
Si 4.48435675 2.734364 8.14381575 0.0 -1.14476111 0.0
Si 5.14060425 8.203092 2.7146052499999995 0.0 -1.14476111 0.0
Si 4.48435675 8.203092 8.14381575 0.0 -1.14476111 0.0
Si 2.734364 2.734364 0.0 0.0 -1.14476111 0.0
Si 2.0781164999999997 2.734364 5.429210499999999 0.0 -1.14476111 0.0
Si 2.734364 8.203092 0.0 0.0 -1.14476111 0.0
Si 2.0781164999999997 8.203092 5.429210499999999 0.0 -1.14476111 0.0
Si 8.203092 2.734364 0.0 0.0 -1.14476111 0.0
Si 7.5468445 2.734364 5.429210499999999 0.0 -1.14476111 0.0
Si 8.203092 8.203092 0.0 0.0 -1.14476111 0.0
Si 7.5468445 8.203092 5.429210499999999 0.0 -1.14476111 0.0
Si 3.609360375 1.367182 4.071907875 0.0 1.14476111 0.0
Si 2.953112875 1.367182 9.501118375 0.0 1.14476111 0.0
Si 3.609360375 6.835909999999999 4.071907875 0.0 1.14476111 0.0
Si 2.953112875 6.835909999999999 9.501118375 0.0 1.14476111 0.0
Si 9.078088375000002 1.367182 4.071907875 0.0 1.14476111 0.0
Si 8.421840875 1.367182 9.501118375 0.0 1.14476111 0.0
Si 9.078088375000002 6.835909999999999 4.071907875 0.0 1.14476111 0.0
Si 8.421840875 6.835909999999999 9.501118375 0.0 1.14476111 0.0
Si 3.937484125 4.101546 1.3573026249999998 0.0 1.14476111 0.0
Si 3.281236625 4.101546 6.786513125 0.0 1.14476111 0.0
Si 3.937484125 9.570274 1.3573026249999998 0.0 1.14476111 0.0
Si 3.281236625 9.570274 6.786513125 0.0 1.14476111 0.0
Si 9.406212125 4.101546 1.3573026249999998 0.0 1.14476111 0.0
Si 8.749964624999997 4.101546 6.786513125 0.0 1.14476111 0.0
Si 9.406212125 9.570274 1.3573026249999998 0.0 1.14476111 0.0
Si 8.749964624999997 9.570274 6.786513125 0.0 1.14476111 0.0
Si 1.2031201249999999 1.367182 1.3573026249999998 0.0 1.14476111 0.0
Si 0.5468726249999999 1.367182 6.786513125 0.0 1.14476111 0.0
Si 1.2031201249999999 6.835909999999999 1.3573026249999998 0.0 1.14476111 0.0
Si 0.5468726249999999 6.835909999999999 6.786513125 0.0 1.14476111 0.0
Si 6.6718481249999995 1.367182 1.3573026249999998 0.0 1.14476111 0.0
Si 6.015600624999999 1.367182 6.786513125 0.0 1.14476111 0.0
Si 6.6718481249999995 6.835909999999999 1.3573026249999998 0.0 1.14476111 0.0
Si 6.015600624999999 6.835909999999999 6.786513125 0.0 1.14476111 0.0
64
Lattice="10.937456 0.0 0.0 -1.312495 10.858421 0.0 0.0 0.0 10.937456" pbc="T T T" Properties=species:S:1:pos:R:3:forces:R:3 energy=-341.22165747 stress="7527.95421 0.0 0.0 0.0 36758.95489 120915.69541 0.0 120915.69541 15554.316209999999"
Si 0.0 0.0 0.0 0.0 0.0 -1.14476094
Si 0.0 0.0 5.468728 0.0 0.0 -1.14476094
Si -0.6562474999999999 5.429210499999999 0.0 0.0 0.0 -1.14476094
Si -0.6562474999999999 5.429210499999999 5.468728 0.0 0.0 -1.14476094
Si 5.468728 0.0 0.0 0.0 0.0 -1.14476094
Si 5.468728 0.0 5.468728 0.0 0.0 -1.14476094
Si 4.8124804999999995 5.429210499999999 0.0 0.0 0.0 -1.14476094
Si 4.8124804999999995 5.429210499999999 5.468728 0.0 0.0 -1.14476094
Si 0.8749963749999999 4.071907875 4.101546 0.0 0.0 1.14476094
Si 0.8749963749999999 4.071907875 9.570274 0.0 0.0 1.14476094
Si 0.21874887499999993 9.501118375 4.101546 0.0 0.0 1.14476094
Si 0.21874887499999993 9.501118375 9.570274 0.0 0.0 1.14476094
Si 6.343724374999998 4.071907875 4.101546 0.0 0.0 1.14476094
Si 6.343724374999998 4.071907875 9.570274 0.0 0.0 1.14476094
Si 5.687476874999998 9.501118375 4.101546 0.0 0.0 1.14476094
Si 5.687476874999998 9.501118375 9.570274 0.0 0.0 1.14476094
Si 2.734364 0.0 2.734364 0.0 0.0 -1.14476094
Si 2.734364 0.0 8.203092 0.0 0.0 -1.14476094
Si 2.0781164999999997 5.429210499999999 2.734364 0.0 0.0 -1.14476094
Si 2.0781164999999997 5.429210499999999 8.203092 0.0 0.0 -1.14476094
Si 8.203092 0.0 2.734364 0.0 0.0 -1.14476094
Si 8.203092 0.0 8.203092 0.0 0.0 -1.14476094
Si 7.5468445 5.429210499999999 2.734364 0.0 0.0 -1.14476094
Si 7.5468445 5.429210499999999 8.203092 0.0 0.0 -1.14476094
Si -0.32812374999999994 2.7146052499999995 2.734364 0.0 0.0 -1.14476094
Si -0.32812374999999994 2.7146052499999995 8.203092 0.0 0.0 -1.14476094
Si -0.9843712499999999 8.14381575 2.734364 0.0 0.0 -1.14476094
Si -0.9843712499999999 8.14381575 8.203092 0.0 0.0 -1.14476094
Si 5.14060425 2.7146052499999995 2.734364 0.0 0.0 -1.14476094
Si 5.14060425 2.7146052499999995 8.203092 0.0 0.0 -1.14476094
Si 4.48435675 8.14381575 2.734364 0.0 0.0 -1.14476094
Si 4.48435675 8.14381575 8.203092 0.0 0.0 -1.14476094
Si 2.4062402499999997 2.7146052499999995 0.0 0.0 0.0 -1.14476094
Si 2.4062402499999997 2.7146052499999995 5.468728 0.0 0.0 -1.14476094
Si 1.7499927499999999 8.14381575 0.0 0.0 0.0 -1.14476094
Si 1.7499927499999999 8.14381575 5.468728 0.0 0.0 -1.14476094
Si 7.87496825 2.7146052499999995 0.0 0.0 0.0 -1.14476094
Si 7.87496825 2.7146052499999995 5.468728 0.0 0.0 -1.14476094
Si 7.21872075 8.14381575 0.0 0.0 0.0 -1.14476094
Si 7.21872075 8.14381575 5.468728 0.0 0.0 -1.14476094
Si 3.937484125 1.3573026249999998 4.101546 0.0 0.0 1.14476094
Si 3.937484125 1.3573026249999998 9.570274 0.0 0.0 1.14476094
Si 3.281236625 6.786513125 4.101546 0.0 0.0 1.14476094
Si 3.281236625 6.786513125 9.570274 0.0 0.0 1.14476094
Si 9.406212125 1.3573026249999998 4.101546 0.0 0.0 1.14476094
Si 9.406212125 1.3573026249999998 9.570274 0.0 0.0 1.14476094
Si 8.749964624999997 6.786513125 4.101546 0.0 0.0 1.14476094
Si 8.749964624999997 6.786513125 9.570274 0.0 0.0 1.14476094
Si 3.609360375 4.071907875 1.367182 0.0 0.0 1.14476094
Si 3.609360375 4.071907875 6.835909999999999 0.0 0.0 1.14476094
Si 2.953112875 9.501118375 1.367182 0.0 0.0 1.14476094
Si 2.953112875 9.501118375 6.835909999999999 0.0 0.0 1.14476094
Si 9.078088375000002 4.071907875 1.367182 0.0 0.0 1.14476094
Si 9.078088375000002 4.071907875 6.835909999999999 0.0 0.0 1.14476094
Si 8.421840875 9.501118375 1.367182 0.0 0.0 1.14476094
Si 8.421840875 9.501118375 6.835909999999999 0.0 0.0 1.14476094
Si 1.2031201249999999 1.3573026249999998 1.367182 0.0 0.0 1.14476094
Si 1.2031201249999999 1.3573026249999998 6.835909999999999 0.0 0.0 1.14476094
Si 0.5468726249999999 6.786513125 1.367182 0.0 0.0 1.14476094
Si 0.5468726249999999 6.786513125 6.835909999999999 0.0 0.0 1.14476094
Si 6.6718481249999995 1.3573026249999998 1.367182 0.0 0.0 1.14476094
Si 6.6718481249999995 1.3573026249999998 6.835909999999999 0.0 0.0 1.14476094
Si 6.015600624999999 6.786513125 1.367182 0.0 0.0 1.14476094
Si 6.015600624999999 6.786513125 6.835909999999999 0.0 0.0 1.14476094
