36
Lattice="6.697796295435161 1.4256130724697545e-17 -5.109363341095475e-17 -2.232599209346729 8.353620253074494 -1.621159358734704e-16 -2.2325980947195188 -2.3867477075857946 26.308423240499188" pbc="T T T" Properties=species:S:1:pos:R:3:forces:R:3 energy=-184.71808052 stress="-23474.82205417225 -766.1422567297996 503.89670340154197 -766.1422567297997 -7252.374488785611 2945.0756738907285 503.89670340154197 2945.0756738907285 465.27640295787324"
Si 3.603311787449549 1.2270814298526682 7.033109710152369 0.0055012939866075795 0.017252006120403045 0.01779879380747165
Si 4.4621968405136405 4.709968304139136 8.394097061229871 -0.008843460691897861 0.0033471266334580184 0.005239171366242313
Si -0.13327030195369002 -0.2736726059042559 9.757478478822266 9.024662289325851e-05 0.030067234225814397 -0.017932328470426587
Si -1.24745136221031 6.84193032407806 8.0370917578563 -0.026427097183454998 0.0032547569603852216 0.014225613971254398
Si 0.9597362694126759 1.8323848567058074 9.936559915820343 -0.013216724073954318 0.0044078357855115375 0.0007176722970271029
Si -1.2978900215193454 2.677590942936856 7.579930287206144 -0.002019663499330284 -0.006958183283670138 -0.017172802005914072
Si 1.2521262499176151 2.5339182247071625 7.6678530376758935 -0.028629316151480764 0.009143852931427396 0.006030446155442303
Si 0.851975163490195 6.422976018950073 9.102951217021886 0.016109299947807652 -0.023204215133427224 -0.021677073300131897
Si 3.193897882796071 1.5608802899977974 10.646440100118731 0.008992293207028159 0.016154147775707096 0.011153670772635923
Si 4.285718939762816 3.6637621755726095 10.60168947218664 -0.009299693289097424 0.01944588749439595 0.014266466819016948
Si 2.1108483803292706 4.634739174543973 8.233378903653664 -0.01115337132558261 0.011643940565439824 0.014019285889929504
Si 4.287398010536166 0.13515831919875704 9.094821914240569 -0.024222485451094063 -0.014641575493526876 -0.013453550495181163
Si -0.16864599067979258 3.3749369750167304 11.341350791593275 0.007578320509994277 0.0087860373978739 -0.010693685431218802
Si -0.1956806907065426 6.967702598936501 12.76758303230722 0.008380578477719001 -0.00633129177310051 -0.007873682548271987
Si 2.0504389789356403 2.1832191625094737 14.314676169388013 0.020139544695165438 -0.008403825843698486 -0.005486237998703567
Si 3.158283558159569 0.7013190979724533 12.832301753478848 -0.035582186277288964 0.0022301058930946907 0.005713347064321629
Si 3.163183951604093 4.278439584364969 14.253824786432737 -0.021853267024808824 -0.015841395025418696 0.01223668591807205
Si 0.9384013907302162 5.465691791111861 11.307255075073591 0.01480219667659191 0.00186355932929132 -0.008832326594063572
Si 3.162511846580317 5.169110851111521 12.05459845406645 0.021853267024808824 0.015841395025418696 -0.01223668591807205
Si -1.2977848460635915 0.39261108442954246 13.476121487020345 0.035582186277288964 -0.0022301058930946907 -0.005713347064321629
Si -1.310501887980967 3.981858644364629 15.0011681654256 -0.01480219667659191 -0.00186355932929132 0.008832326594063572
Si -0.20345450657095765 6.07261346045976 14.967072448905911 -0.007578320509994277 -0.0087860373978739 0.010693685431218802
Si -2.422539476186392 7.264331272967017 11.993747071111175 -0.020139544695165438 0.008403825843698486 0.005486237998703567
Si -0.17641980654420777 2.4798478365399856 13.540840208191971 -0.008380578477719001 0.00633129177310051 0.007873682548271987
Si 2.0399768584215954 5.783788259903882 15.706733768312546 0.009299693289097424 -0.01944588749439595 -0.014266466819016948
Si 4.270896996994973 0.9587718632032383 17.213601326258622 0.024222485451094063 0.014641575493526876 0.013453550495181163
Si -2.482948877580021 4.812811260932516 18.075044336845526 0.01115337132558261 -0.011643940565439824 -0.014019285889929504
Si -1.2240756607409446 3.0245744165264163 17.205472023477306 -0.016109299947807652 0.023204215133427224 0.021677073300131897
Si 0.6083724621783635 -1.4399880423051663 18.640570202823294 0.028629316151480764 -0.009143852931427396 -0.006030446155442303
Si -1.3333991707000927 -0.4669501075958013 15.661983140380459 -0.008992293207028159 -0.016154147775707096 -0.011153670772635923
Si 0.9007646752825113 -0.738463027924065 16.37186332467885 0.013216724073954318 -0.0044078357855115375 -0.0007176722970271029
Si 0.8753508649595595 2.6056201113984305 18.27133148264289 0.026427097183454998 -0.0032547569603852216 -0.014225613971254398
Si 3.158388733615323 -1.58366076053486 18.728492953293042 0.002019663499330284 0.006958183283670138 0.017172802005914072
Si -1.7428130753535702 -0.1331512474506722 19.27531353034682 -0.0055012939866075795 -0.017252006120403045 -0.01779879380747165
Si 1.9937712466488777 1.3675944346859983 16.550944761676924 -9.024662289325851e-05 -0.030067234225814397 0.017932328470426587
Si 1.8634989576707686 4.737582131337353 17.914326179269313 0.008843460691897861 -0.0033471266334580184 -0.005239171366242313
24
Lattice="5.468728 0.0 0.0 0.0 8.64681818663611 1.5431481673739666e-16 0.0 -1.729363255318011 20.752363880454002" pbc="T T T" Properties=species:S:1:pos:R:3:forces:R:3 energy=-121.41180043 stress="-24582.48205 1882.3765214786026 156.8646737148102 1882.3765214786026 -22939.56645904107 -1872.562766130221 156.8646737148102 -1872.562766130221 -624.8549109589267"
Si 5.450774165975999 6.781625195870084 2.9730459066054826 -0.00309968 -0.0028449438784568775 -0.0033886649376016426
Si 0.28228480190399996 3.674027881429019 1.1961247493416078 -0.00574422 -0.002071019665728242 0.0035477660536972957
Si 5.462717867928 1.5907102651834106 4.717655633307489 0.00647612 -0.0022521951069467477 -0.0016869617512988038
Si 1.3851358340239999 2.4582161025520266 2.9730459066054817 0.00309968 -0.0028449438784568775 -0.0033886649376016426
Si 1.0848971980959998 7.997436974747073 1.196124749341608 0.00574422 -0.002071019665728242 0.0035477660536972957
Si 1.373192132072 5.914119358501467 4.717655633307489 -0.00647612 -0.0022521951069467477 -0.0016869617512988038
Si 2.8447612121359995 0.745928185667007 2.097731950491813 -0.00745416 0.00198130744902882 0.004484007428453137
Si 1.7978224550879998 5.6492153710134625 1.1582101805320186 -0.00145689 0.0027211180307069164 0.0005482703580002439
Si 2.7603896765519997 4.177015074834233 3.9191254235515 -9.322e-05 0.0019453520432935053 0.002673447386008145
Si 4.075520323448 -0.14639401848382055 3.9191254235514994 9.322e-05 0.0019453520432935053 0.002673447386008145
Si 3.9911487878639997 5.069337278985063 2.0977319504918124 0.00745416 0.00198130744902882 0.004484007428453137
Si 5.038087544912 1.325806277695407 1.1582101805320184 0.00145689 0.0027211180307069164 0.0005482703580002439
Si 0.110397212136 -0.16947921343211853 8.278449989735188 -0.00745416 -0.00198130744902882 -0.004484007428453137
Si 0.026025676552 5.046269377673138 6.457056516675503 -9.322e-05 -0.0019453520432935053 -0.002673447386008145
Si 4.5321864550879996 3.5740517878575373 9.217971759694983 -0.00145689 -0.0027211180307069164 -0.0005482703580002439
Si 1.256784787864 4.153929879885936 8.278449989735188 0.00745416 -0.00198130744902882 -0.004484007428453137
Si 1.3411563234479997 0.7228602843550821 6.457056516675501 9.322e-05 -0.0019453520432935053 -0.002673447386008145
Si 2.3037235449119997 -0.7493573054605184 9.217971759694983 0.00145689 -0.0027211180307069164 -0.0005482703580002439
Si 2.716410165976 2.4416419630009174 7.4031360336215215 -0.00309968 0.0028449438784568775 0.0033886649376016426
Si 2.7283538679279995 7.632556893687588 5.658526306919513 0.00647612 0.0022521951069467477 0.0016869617512988038
Si 3.016648801904 5.549256571078355 9.180057190885393 -0.00574422 0.002071019665728242 -0.0035477660536972957
Si 3.819261198096 1.2258474777602986 9.180057190885394 0.00574422 0.002071019665728242 -0.0035477660536972957
Si 4.119499834024 6.7650510563189705 7.4031360336215215 0.00309968 0.0028449438784568775 0.0033886649376016426
Si 4.107556132071999 3.309147800369533 5.658526306919513 -0.00647612 0.0022521951069467477 0.0016869617512988038
