24
Lattice="3.866975 0.0 0.0 0.0 9.472115 0.0 0.0 0.0 26.791186" pbc="T T T" Properties=species:S:1:pos:R:3:forces:R:3 energy=-122.65436716 stress="-9134.44711 -1211.99576 0.0 -1211.99576 -5238.8209400000005 0.0 0.0 0.0 -495.76065"
Si 0.0 0.17807576200000003 26.666231908496 0.0 -0.02887858 0.00455755
Si 0.0 3.14561361458 2.1955912750719997 0.0 -0.12932885 0.06533873
Si 0.0 6.298085040420001 4.47131498747 0.0 0.04298574 0.06599531
Si 0.0 0.000596743245 6.693751030914 0.0 0.03287176 0.00103952
Si 0.0 3.1402997580650003 8.905202688097999 0.0 0.03375229 0.02969416
Si 0.0 6.39492794418 11.201314493042 0.0 -0.041645 -0.07735181
Si 1.9334875 0.7894818410200001 5.58529250135 0.0 -0.03368629 -0.00049365
Si 1.9334875 3.964184320765 7.80802324784 0.0 -0.04286567 -0.06669068
Si 1.9334875 7.115329650505001 10.083961289726 0.0 0.12194746 -0.06893699
Si 1.9334875 0.61013681561 12.403729711907998 0.0 0.03051155 -0.00355037
Si 1.9334875 3.866166874745 1.0784256100579999 0.0 0.04808778 0.08245886
Si 1.9334875 7.121410748335 3.374242711956 0.0 -0.03583539 -0.02763239
Si 1.9334875 0.01574265513 3.3474783171419995 0.0 0.02380623 -0.00870858
Si 1.9334875 3.155720361285 5.57028943719 0.0 0.00451156 0.04397601
Si 1.9334875 6.327259154620001 7.8308493383119995 0.0 0.01990049 0.04830322
Si 1.9334875 0.03290612751 10.082300236194001 0.0 0.01816529 0.03079266
Si 1.9334875 2.7887611540700004 11.67064248939 0.0 -0.00931391 0.04276597
Si 1.9334875 6.223018529045 1.1167637972239999 0.0 0.17301217 -0.03727157
Si 0.0 3.93501967868 4.448408523439999 0.0 -0.01690159 -0.04260899
Si 0.0 7.106548999900001 6.708968424562 0.0 -0.00441862 -0.0436579
Si 0.0 0.773748658005 8.931618797494 0.0 -0.02479199 0.0063447
Si 0.0 4.03807628988 11.162815558759998 0.0 -0.17039243 0.0311961
Si 0.0 7.471935836024999 0.608910075408 0.0 0.00523527 -0.04334264
Si 0.0 0.75598844238 2.196528966582 0.0 -0.01672927 -0.03221724
18
Lattice="3.866975 0.0 0.0 -1.933487 6.4126523295015 1.9885307508049902e-17 0.0 -1.1659384794536682 29.679903599569613" pbc="T T T" Properties=species:S:1:pos:R:3:forces:R:3 energy=-92.94251443 stress="-7064.997240000001 1441.826600695607 56.64049332636054 1441.826600695607 -22341.23468549015 -902.9063806741372 56.64049332636054 -902.9063806741372 607.4606854901419"
Si 2.571939999944663e-07 2.8204132194586404 12.172411103966288 0.0 0.025997431143308183 0.013131200385442682
Si 1.9334857754600001 2.337801283551049 8.70624356209055 0.0 -0.001343510150186131 0.032477993822376816
Si 1.933489915879 5.773710791942777 10.515975684074307 0.0 -0.026399600705812827 -0.005581818520952397
Si 4.183617999693634e-06 3.7208139332667503 8.66080362967961 0.0 -0.003255456922839734 -0.03659883533755596
Si 1.9334836413760002 -0.2534168839630141 9.177352671926519 0.0 0.007403641278357084 -0.01891360823068954
Si 1.9334897334930008 3.418688685577451 10.919859812257252 0.0 -0.013301199291125563 -0.02536136491927556
Si 2.022534999987151e-06 0.4704224555332843 17.09710846853207 0.0 0.013266048737707438 -0.009379149910304823
Si 1.9334875346890004 -0.09758736458860932 13.809376507096951 0.0 0.011195084442694365 0.010214728811155127
Si 1.9334858786640006 3.396370065106113 15.453405727284313 0.0 0.03312737518960335 -0.00578301188302888
Si 7.761900004905552e-08 0.501187703962771 12.582795131037535 0.0 -0.013266048737707438 0.009379149910304823
Si 4.221490000215662e-06 3.9878924238914433 14.226497872285302 0.0 -0.03312737518960335 0.00578301188302888
Si 1.9334856984900002 1.0691975240846647 15.87052709247266 0.0 -0.011195084442694365 -0.010214728811155127
Si 1.9334859165360005 3.663448555730804 21.01909996989 0.0 0.003255456922839734 0.03659883533755596
Si 3.666609998810226e-07 3.965573803420104 18.76004378731236 0.0 0.013301199291125563 0.02536136491927556
Si 1.9334876583160001 1.2250334561113994 20.502550927643092 0.0 -0.007403641278357084 0.01891360823068954
Si 1.933485975985 4.563849269538916 17.507492495603326 0.0 -0.025997431143308183 -0.013131200385442682
Si 1.8427500017391672e-07 1.6105516970547775 19.163927915495307 0.0 0.026399600705812827 0.005581818520952397
Si 4.324694000401802e-06 5.046461205446507 20.97366003747906 0.0 0.001343510150186131 -0.032477993822376816
40
Lattice="5.4687275322087485 5.824243252089882e-19 3.0356949382965544e-17 2.7343639386479865 9.858889555702023 -7.546260554487685e-17 2.7343641846863913 3.791880522313137 30.335045168840715" pbc="T T T" Properties=species:S:1:pos:R:3:forces:R:3 energy=-207.25408056 stress="-9638.864274955164 -717.8299509566968 930.1882083800815 -717.8299509566968 -16382.576822595409 9798.351488369883 930.1882083800816 9798.351488369884 -2722.801172449422"
Si 2.69921907126666 0.8019819733628735 5.909266798890173 0.003975644450355126 0.0021039276729108197 0.001018431567274183
Si 2.765877435770318 5.44299811977985 2.7561815339505293 0.004247931655190249 -0.002649596499456209 0.0008751098141959277
Si 2.7424959964615767 8.382507175441226 7.390587724575002 -0.001077060549398233 -0.0004388312541063872 -0.0001232924456298575
Si 5.508389582459661 3.0778975308105307 4.302510461432185 0.00059190924100814 -0.0037413073874219566 0.003450109864660988
Si 4.889682404475504 7.475254254199951 1.6133693773047935 0.0013340544726614689 -0.0014602554078071766 0.0034677453779713738
Si 4.746729744937081 1.2726324819950188 0.46855510767791386 0.0015443408697468854 0.0029203889547460967 -0.0013739913532575204
Si 4.107525844387251 4.988579144045885 4.682426567126747 -0.001893289582108362 0.0012646257574641451 0.005588113576891416
Si 3.8636042381629836 9.724425673620738 1.6690038501444473 -0.0028098678586540777 -0.00017129553450505184 -0.0021714302763988012
Si 1.3455777951992933 2.7132505697679212 6.268009043056882 -0.003910556051523115 -0.0026037754745347297 0.004345566735824842
Si 6.748784546825455 7.297523498081212 3.145956529324964 0.0024798680973053687 0.0008960202434548495 0.0006940883790888298
Si 8.15860340223961 9.146381531365272 3.645453383075095 0.0030278523753408193 0.00045611779602578264 0.0016644176787968638
Si 5.16548939877501 3.467845438971835 1.1344093491339673 -0.0007276630368806789 -0.002360749528205774 0.001535380200352278
Si 5.474530031621741 6.858107476996982 5.1223453921652755 0.0012949522551290416 8.56606219536988e-05 -0.0007985735882701821
Si 2.9146349493677914 1.4352434856170455 2.0474638736709037 0.002476765209410505 -0.002590803262032405 -0.0003847854620382434
Si 2.7602145981227646 4.582395164642049 6.612342140768393 -0.0014187300907998206 -0.002136188325915629 -0.0004506190894546247
Si 1.5937923681424222 3.4015679130729275 2.4496155674742255 0.0002179727902312501 0.001839077633881061 0.0007602390888248516
Si 6.867767682170797 6.474797638229046 7.006606722827817 -0.0037111904512552862 -0.001613210909534353 -0.0016083680420758575
Si 4.094955900259741 1.181084341337983 4.0572819562872775 0.0012431470368874274 -0.0018353512619802964 0.007491865716256888
Si 3.9228222689584555 5.537560801835425 0.6345181397966414 -0.001000772239175636 -0.0014443797904970194 -0.0014360180534725773
Si 4.097315805210414 8.742302804271967 5.494647401522456 -0.0017180320161325165 0.0009083331907695538 0.0034860311159526443
Si 5.706669445817478 8.93162683222927 13.49851873427591 0.0028098678586540777 0.00017129553450505184 0.0021714302763988012
Si 2.7283839009452233 3.8085838061021016 10.485096017293612 0.001893289582108362 -0.0012646257574641451 -0.005588113576891416
Si 7.5579075326041405 7.524530468152966 14.698967476742443 -0.0015443408697468854 -0.0029203889547460967 0.0013739913532575204
Si 8.290216669363755 11.358529007768794 12.021566055095393 -0.0024798680973053687 -0.0008960202434548495 -0.0006940883790888298
Si 5.4903319501331795 6.083912380380063 8.899513541363477 0.003910556051523115 0.0026037754745347297 -0.004345566735824842
Si 6.827777687518883 10.273545330408785 7.776934859845357 0.001077060549398233 0.0004388312541063872 0.0001232924456298575
Si 4.070032309562155 3.354164830368135 12.411341050469828 -0.004247931655190249 0.002649596499456209 -0.0008751098141959277
Si 4.136690674065814 7.995180976785112 9.258255785530187 -0.003975644450355126 -0.0021039276729108197 -0.001018431567274183
Si 4.680591279504958 11.18079825165006 13.554153207115569 -0.0013340544726614689 0.0014602554078071766 -0.0034677453779713738
Si 6.79624769508156 5.719265419337455 10.865012122988174 -0.00059190924100814 0.0037413073874219566 -0.003450109864660988
Si 2.7409538450727324 7.616078608810002 11.11024062813308 -0.0012431470368874274 0.0018353512619802964 -0.007491865716256888
Si 5.4368695953704265 2.322365311918939 8.160915861592544 0.0037111904512552862 0.001613210909534353 0.0016083680420758575
Si 5.242117377190052 5.395595037075058 12.717907016946134 -0.0002179727902312501 -0.001839077633881061 -0.0007602390888248516
Si 5.472957878770046 9.913749701578043 9.6728751828979 0.0017180320161325165 -0.0009083331907695538 -0.0034860311159526443
Si 2.913087476374018 3.25960214831256 14.533004444623717 0.001000772239175636 0.0014443797904970194 0.0014360180534725773
Si 1.361379713710732 1.9390554731510032 10.045177192255084 -0.0012949522551290416 -8.56606219536988e-05 0.0007985735882701821
Si 7.139147878766212 5.329317511176151 14.033113235286391 0.0007276630368806789 0.002360749528205774 -0.001535380200352278
Si 6.880397813949599 9.509670974484736 11.522069201345262 -0.0030278523753408193 -0.00045611779602578264 -0.0016644176787968638
Si 4.075695147209709 4.214767785505936 8.555180443651967 0.0014187300907998206 0.002136188325915629 0.0004506190894546247
Si 3.921274795964682 7.361919464530939 13.120058710749452 -0.002476765209410505 0.002590803262032405 0.0003847854620382434
24
Lattice="3.8669742850357824 -2.1690493914528187e-18 -8.355732241373768e-17 1.9334873902583543 8.427876286580208 -1.1792442196012785e-16 1.9334900033178826 1.3307152504863202 30.11069432415395" pbc="T T T" Properties=species:S:1:pos:R:3:forces:R:3 energy=-123.87527828 stress="-1682.4534666061393 1018.361504216644 -45.005657540424586 1018.3615042166441 969.239036767911 -225.7075216691301 -45.00565754042459 -225.70752166913013 -1150.6439201617711"
Si 3.866968714877151 5.655962367105734 0.6834224290753218 -3.024214576580561e-09 -0.004201885957121572 0.005703185996075825
Si 1.9334931930661177 2.23604363680744 1.9673123243629227 7.4110138545226576e-09 0.21515837029900522 0.026410552496326546
Si 1.933486069944745 6.747723219073418 7.070322244948913 -2.2663145275880107e-09 -0.006535979513699195 0.0034616177035310144
Si 5.800463897708234 7.652487044386125 3.326418734072259 1.3386693622521114e-09 -0.10827817002651445 0.006181860877311397
Si 3.8669690421605876 4.555402113490715 4.521150863466039 -2.9028483702043663e-09 0.010642790395732887 0.01673171785689047
Si 1.93348966098522 1.4449532272304257 5.78917242284481 2.4201971128252392e-09 0.009381807703459217 0.050296450856338826
Si 3.866978942505187 5.421770345133967 6.734798778094865 -5.110196898956031e-09 0.006996426992338735 -0.00848645196626646
Si 1.9334873765941665 4.40388909131294 1.1164443241509803 -4.095372462382124e-09 -0.13926764923164955 0.021828152457739277
Si 5.80046026205885 8.539074639974467 5.516821192682838 5.08309560682147e-10 0.024116471063891632 -0.0038403573496066574
Si 3.8669686782688135 0.959716307139573 1.7659018900286565 -3.053674301705283e-09 -0.1235261381244472 -0.005497810817051665
Si 3.866980549780894 6.338596237394124 2.9661442764837567 3.3635289612366307e-09 0.0505960943204243 0.026596592617717376
Si 1.933489564198818 3.215604012056732 4.200923629328663 -2.9792233285188596e-09 0.08364026457762748 -0.06496285214128894
Si 3.8669713057068376 3.6714635666894004 8.32054838398211 5.110196898956031e-09 -0.006996426992338735 0.00848645196626646
Si 1.933489986153173 0.5541592718488969 9.538525969394135 -5.08309560682147e-10 -0.024116471063891632 0.0038403573496066574
Si 1.9334885865820748 4.689344820510428 13.938902837925996 4.095372462382124e-09 0.13926764923164955 -0.021828152457739277
Si 5.800460684013206 5.877629899766635 10.854423532748314 2.9792233285188596e-09 -0.08364026457762748 0.06496285214128894
Si 3.8669696984311286 2.754637674429242 12.089202885593219 -3.3635289612366307e-09 -0.0505960943204243 -0.026596592617717376
Si 3.866981569943211 8.133517604683794 13.289445272048319 3.053674301705283e-09 0.1235261381244472 0.005497810817051665
Si 3.8669815333348736 3.4372715447176323 14.37192473300165 3.024214576580561e-09 0.004201885957121572 -0.005703185996075825
Si 1.933489893231496 2.345510692749948 7.9850249171280625 2.2663145275880107e-09 0.006535979513699195 -0.0034616177035310144
Si 5.800457055145906 6.857190275015927 13.088034837714053 -7.4110138545226576e-09 -0.21515837029900522 -0.026410552496326546
Si 5.8004605872268025 7.64828068459294 9.266174739232163 -2.4201971128252392e-09 -0.009381807703459217 -0.050296450856338826
Si 3.866981206051437 4.537831798332652 10.534196298610937 2.9028483702043663e-09 -0.010642790395732887 -0.01673171785689047
Si 1.9334902174780753 1.4407468674372421 11.728928428004714 -1.3386693622521114e-09 0.10827817002651445 -0.006181860877311397
96
Lattice="3.866975 0.0 0.0 0.0 18.137718396993726 -3.2273162513384793e-16 0.0 -8.244416414373426 55.96496278694246" pbc="T T T" Properties=species:S:1:pos:R:3:forces:R:3 energy=-506.4522305 stress="-5248.55261 899.3225044198941 132.4826971739664 899.3225044198941 -5192.310933969337 -684.0241304531409 132.4826971739664 -684.0241304531407 -649.7667260306597"
Si 0.0 11.306943917092912 40.06100755703751 0.0 -0.047886889967840185 -0.01666236033355615
Si 0.0 9.958185077379213 30.611827275127357 0.0 -0.003113527061364018 0.01651727000391269
Si 0.0 8.304395985046538 21.274744813679455 0.0 0.015893439610402144 0.0008401763392288519
Si 0.0 6.645393598200685 37.53251053832345 0.0 -0.004872640503615849 0.024055856210933802
Si 0.0 4.991472595845285 28.230797933356893 0.0 -0.0021944537300318382 0.012105743826847211
Si 0.0 3.317318143992424 18.919179529977047 0.0 0.03893404118833634 -0.04329532808150816
Si 0.0 0.13677231039828572 38.93051530874127 0.0 0.07549040526139515 0.016486455754091578
Si 0.0 -1.6021057682538498 29.449658857893713 0.0 0.003973682160448357 0.002433946140947755
Si 0.0 14.900549908986045 20.262114777012517 0.0 -0.012188191607003936 -0.004829282394451449
Si 0.0 -4.887006380714878 36.50359469748552 0.0 -0.007513131931298833 -0.045777426897095234
Si 0.0 11.600311379092485 27.143510636332177 0.0 -0.00551538987887863 0.010927062269817225
Si 0.0 9.99993786685619 17.775031830760796 0.0 0.015214178283273367 -0.025700753202971948
Si 0.0 8.302831432172132 34.073036363648605 0.0 -0.005780531904073325 0.012320568985902818
Si 0.0 6.6390022884239155 24.7445165415071 0.0 0.0038332744286499565 0.006849852580870506
Si 0.0 5.222797532200425 16.038327105556395 0.0 0.03345987262144389 -0.0831111713070352
Si 0.0 4.370310390576586 40.98140733503156 0.0 -0.04069111057192166 -0.011154976792810654
Si 0.0 3.347075782201155 31.733365129377688 0.0 0.00981803642266414 0.02513111070925717
Si 0.0 1.6646340410579963 22.375071947033533 0.0 -0.0054737830651536415 -0.016298446641340922
Si 0.0 1.6827835398126036 35.20649475497255 0.0 0.00772224101046221 0.02899644847414827
Si 0.0 0.05673691379924994 25.955038686588665 0.0 0.00044256884555008205 -0.006516447114091272
Si 0.0 -1.755523075270337 16.498415064627846 0.0 -0.043585490019621725 -0.012883896568893827
Si 0.0 11.982781225294497 15.203050035961278 0.0 -0.02695426401535055 0.025113713557651688
Si 0.0 -3.2215121026667863 33.00863873640375 0.0 0.013909758200756185 -0.03133237068955837
Si 0.0 13.239265228914716 23.67222785450928 0.0 -0.005867390164014725 -0.009112242652883165
Si 0.0 12.843528439112138 34.15620029835 0.0 -0.019913755886138133 -0.0019042525808827579
Si 0.0 11.175811227913284 24.817998537646357 0.0 0.004234542245959125 -0.00332198317202051
Si 0.0 9.614902092303549 15.40435600710591 0.0 -0.03509437720519428 0.023486713583056693
Si 0.0 9.326166587361067 41.431197740950225 0.0 0.008063165984721095 0.02268521883379873
Si 0.0 7.886874146255076 31.74198373364687 0.0 0.0008367811885912603 0.0173777695739505
Si 0.0 6.22510116004516 22.40406179775717 0.0 -0.012762712552719312 0.004304226836338999
Si 0.0 15.082159477185936 14.42524898314835 0.0 0.006828688831017404 -0.05047288015302216
Si 0.0 1.2740120884032826 32.88920950581641 0.0 -0.03344016515754483 -0.00023221208974542816
Si 0.0 -0.35104190991491696 23.628799043386614 0.0 0.016787141668196618 0.012408371517008052
Si 0.0 -2.019434686668229 39.97123975672726 0.0 0.20465257366587897 -0.05559433461134733
Si 0.0 -3.640663276227234 30.66023696793806 0.0 0.003314772463181204 0.012602083422301078
Si 0.0 12.813098056757099 21.35913997756216 0.0 0.02254351248491385 -0.024318419312638992
Si 0.0 11.163024374304946 37.63263185674929 0.0 0.01830351695437587 -0.016476945312993395
Si 0.0 9.532479592289409 28.282061839269733 0.0 -0.0023994467777520103 -0.005503823272229541
Si 0.0 7.9156963918119265 18.927462344469514 0.0 -0.004845640241703016 0.003940636645135951
Si 0.0 6.23618024587044 35.20739019437715 0.0 -0.0080807126364054 0.0008334175381152391
Si 0.0 4.571276030377195 25.894540561815983 0.0 -0.013960954841323939 -0.008189181034402257
Si 0.0 2.9203230174281853 16.545593528257243 0.0 0.18495845691529 0.12964359131327582
Si 0.0 4.538877354033941 38.57463411037911 0.0 -0.008887461550694713 0.009478789688658732
Si 0.0 2.9364427411906684 29.40852461024531 0.0 -0.0091757969812821 0.007843881120796913
Si 0.0 1.2158161556052167 20.019730523182265 0.0 0.009522515030231537 0.07896096428121123
Si 0.0 -0.28445645700130695 36.54758315823605 0.0 -0.05644276326787561 0.0039257419209558254
Si 0.0 -2.0093157271782904 27.122635705212648 0.0 0.0054531938591666365 -0.0073909812668378
Si 0.0 14.522894538386625 17.96951007644542 0.0 0.026498365680268858 -0.008739455082781147
Si 1.9334875 -3.2294876331168547 39.419369258685215 0.0 -0.14416881437130694 -0.11716084751399088
Si 1.9334875 13.257277750927868 30.070422225126478 0.0 0.012678868368939169 0.009595150327640193
Si 1.9334875 11.592373535434618 20.75757259256532 0.0 0.007742402535537528 0.0005951297259438717
Si 1.9334875 9.912857389493134 37.03750044247295 0.0 0.0040001890896352 0.0029364546808802456
Si 1.9334875 8.29607418901565 27.682900947672724 0.0 0.0034471778335820403 0.0062964335047835315
Si 1.9334875 6.665529407000116 18.33233093019317 0.0 -0.025988036494763687 -0.0045931036914085115
Si 1.9334875 3.305659242918435 37.99545271049704 0.0 -0.011043239731199537 0.009684157200596033
Si 1.9334875 1.700151111489621 28.842327081729817 0.0 -0.005792810985078735 0.008051062968437842
Si 1.9334875 -0.024708158687361072 19.417379628706406 0.0 0.05484606286542477 -0.004010329778319092
Si 1.9334875 -1.5249807712938848 35.94523226376019 0.0 -0.006181903756064731 -0.07469464789780626
Si 1.9334875 -3.2456073568793373 26.55643817669715 0.0 0.009290105581717405 -0.007564468320684746
Si 1.9334875 13.289676427271118 17.39032867656335 0.0 0.004083941785662931 -0.027595919978551472
Si 1.9334875 11.603452621259901 33.56090098918529 0.0 0.01536489338791371 -0.006558683761353751
Si 1.9334875 9.941679635049985 24.22297905329558 0.0 -0.0014084653787658425 -0.018557806910098996
Si 1.9334875 8.502387193943996 14.533765045992233 0.0 -0.028563033584324358 -0.011927325405104796
Si 1.9334875 8.213651689001514 40.56060677983655 0.0 0.03981123956910606 -0.03978219381780929
Si 1.9334875 6.652742553391778 31.146964249296104 0.0 -0.0048704381270425826 0.003957674493670484
Si 1.9334875 4.985025342192923 21.808762488592457 0.0 0.018430676847049153 -5.1656493745944095e-05
Si 1.9334875 5.015455724547961 34.60582280938029 0.0 -0.02299936342267846 0.028002377576862292
Si 1.9334875 3.331498660538565 25.304725819004396 0.0 -0.002591418778286935 -0.011765326908762112
Si 1.9334875 1.7102700709795604 15.993723030215202 0.0 -0.20718989336950433 0.04854695673162535
Si 1.9334875 2.746394304119123 41.53971380379411 0.0 0.006474669425697143 0.03917458030438543
Si 1.9334875 0.04187729422624714 32.33616374355585 0.0 -0.015415190757646345 -0.010800534810641303
Si 1.9334875 -1.5831767040919529 23.07575328112605 0.0 0.032633727102672705 -0.0006324208648393856
Si 1.9334875 -3.626482759681093 37.045783256965414 0.0 -0.0474306902320288 0.025296743217082845
Si 1.9334875 12.837081185459773 27.734164853585565 0.0 0.004285602668705764 -0.012543309701182621
Si 1.9334875 11.183160183104372 18.432452248619008 0.0 0.009458333086169439 -0.0263894491264212
Si 1.9334875 9.524157796258521 34.690217973263 0.0 -0.013307822535280775 -0.007087216974869124
Si 1.9334875 7.870368703925844 25.353135511815097 0.0 0.004733877870638971 -0.016443440178760486
Si 1.9334875 6.521609864212141 15.903955229904948 0.0 0.004509076120331951 0.01900363316783273
Si 1.9334875 2.928003872319017 35.702848009929944 0.0 0.00945810851242533 -0.003112660478945218
Si 1.9334875 1.2929411525651804 26.515303929048745 0.0 -0.005149401180864095 -0.003350876863048752
Si 1.9334875 -0.4459369260869547 17.034447478201187 0.0 -0.0747257599722292 -0.01484011727718098
Si 1.9334875 -1.9737986567466652 33.58989083990893 0.0 0.004658168699918378 0.014326563974212404
Si 1.9334875 14.481477999103907 24.23159765756477 0.0 -0.010912775550174305 -0.02445230127414428
Si 1.9334875 13.458243390728473 14.98355545191089 0.0 0.05030169316120598 0.024102890307147438
Si 1.9334875 -5.531962147889094 39.92663568138606 0.0 -0.018329932892866756 0.09458952052392273
Si 1.9334875 11.189551492881142 31.22044624543537 0.0 -0.0033119535684469877 -0.004479789075810519
Si 1.9334875 9.525722349132929 21.891926423293853 0.0 0.006238705280446695 -0.010196879244230881
Si 1.9334875 7.828615914448871 38.18993095618167 0.0 -0.009111319035877799 0.02038647826056651
Si 1.9334875 6.228242402212576 28.82145215061028 0.0 0.0040909510897367595 -0.01121648157979505
Si 1.9334875 4.577841765026208 19.461368089456943 0.0 0.008856827091447505 0.038092161088920926
Si 1.9334875 5.845772556010563 40.761912750981175 0.0 0.01730431892299592 0.022018535267018677
Si 1.9334875 4.589288552390343 32.29273493243318 0.0 0.005886618674625949 0.007697176058662359
Si 1.9334875 2.912347486978118 22.95632405053871 0.0 -0.013719323916523252 0.029927474384349794
Si 1.9334875 1.4463584595816699 39.4665477223146 0.0 0.026437967575659867 0.01762885264202288
Si 1.9334875 -0.36590152948791843 30.009924100353793 0.0 2.0714203975196005e-05 0.007844375020953146
Si 1.9334875 -1.991948155501273 20.75846803196991 0.0 -0.0068814886108650546 -0.028397066657630934
36
Lattice="3.866975 0.0 0.0 0.0 15.943945139690147 5.874695525278797e-16 0.0 -6.5651539197026025 23.87450438035468" pbc="T T T" Properties=species:S:1:pos:R:3:forces:R:3 energy=-184.60607746 stress="-4796.070290000001 5877.494377780418 1616.2285355781648 5877.494377780418 -25928.50847335595 -6882.372640207136 1616.2285355781648 -6882.372640207136 -2792.9786166440535"
Si 1.9334875 12.967952433452249 6.8227603638002385 0.0 0.041169277841348405 -0.012483567840563837
Si 1.9334875 -1.0132180336845928 9.585279265651078 0.0 0.0015972713677660664 -0.016248848190386134
Si 1.9334875 5.915839516117424 7.878108955429437 0.0 0.0026289188821678666 0.017961691440033737
Si 0.0 -0.28381067798748744 8.393177512931208 0.0 0.04120794117255026 0.026818561947666728
Si 0.0 6.919228562714726 6.846205127101748 0.0 -0.013794097079177116 0.0454510546635118
Si 0.0 9.42286968574299 9.916776758972302 0.0 0.027244062934852258 0.016151166269787135
Si 0.0 9.313258818247323 7.555373405215802 0.0 0.027910950532486486 -0.035084703259300805
Si 0.0 -1.6701132576340572 6.372630458213031 0.0 -0.0042480431640607285 -0.009602103103381932
Si 0.0 2.2163105894140545 8.540626451984277 0.0 0.012697228231035815 0.023636749223281257
Si 1.9334875 12.540040388905808 9.278109892293436 0.0 0.008193126703711093 -0.015355379008329175
Si 1.9334875 3.5087783665108865 8.094913329707438 0.0 0.007139354515628505 -0.08797097605018529
Si 1.9334875 10.680990457121547 7.229534169432723 0.0 0.040196130129631455 -0.004702104507508796
Si 1.9334875 8.411141956103107 10.784710491215717 0.0 -0.020174565076169798 0.002733512431175299
Si 1.9334875 11.272294161409336 13.601615514045006 0.0 -0.05442057175718822 0.002473890037416207
Si 1.9334875 1.880664278036234 11.982064634899267 0.0 -0.006694750049085054 0.0009352929887878306
Si 0.0 12.255106139820281 12.67156032140391 0.0 -0.008309834369195832 0.0073858977793584265
Si 0.0 2.7504271204881037 10.90673308310371 0.0 -0.05943406558316382 0.022340252640907683
Si 0.0 5.618814125716777 13.510223911277008 0.0 0.002060054614475945 0.015098846010684936
Si 0.0 5.095593874231774 11.202944058950772 0.0 0.009518556952060574 -0.007182087748759365
Si 0.0 11.73188307469798 10.36423272006891 0.0 -0.0023111884296038243 -0.01471148864738934
Si 0.0 -1.3436684946102313 12.968105540312296 0.0 0.05926968068643424 -0.023629170135640067
Si 1.9334875 8.939423003355252 13.089531269590776 0.0 0.019988002959525575 -0.0027476751404227023
Si 1.9334875 -0.4739140930702627 11.892630741490455 0.0 0.006785230909411699 0.00030870145280527834
Si 1.9334875 6.078197643477241 10.27260237225711 0.0 0.05276874634104397 -0.0032012132251943957
Si 1.9334875 4.810799369135886 14.596466111574385 0.0 -0.0075111878444476 0.015356542591762726
Si 1.9334875 6.66967766904023 16.644970210921958 0.0 -0.04062598668368462 0.005197501486645261
Si 1.9334875 -2.101476708619602 15.78021178776113 0.0 -0.00660147229866632 0.08826662381962698
Si 0.0 8.037330526068073 16.319011602616975 0.0 -0.028155671697113242 0.03569098650711797
Si 0.0 -0.8093221831503062 15.334188296927346 0.0 -0.012289653312881885 -0.02345219791092663
Si 0.0 3.076959106270867 17.50206491817669 0.0 0.003999317772015316 0.009773644752703183
Si 0.0 1.6907812645481146 15.48147011444975 0.0 -0.04094331926745745 -0.02633214981033353
Si 0.0 7.927850023770825 13.957655997869235 0.0 -0.027214053375318653 -0.017196430631820303
Si 0.0 10.431431122536466 17.027344273077716 0.0 0.01444739757730668 -0.04661588669159296
Si 1.9334875 4.3827560215117085 17.05188726358072 0.0 -0.04099212418505108 0.012720748005123376
Si 1.9334875 11.435160619255642 15.995941809342012 0.0 -0.0028602541202300113 -0.017310439514561935
Si 1.9334875 2.4201342232558822 14.289392236234262 0.0 -0.0022404284636947896 0.015524742422934631
36
Lattice="3.866975 0.0 0.0 0.0 11.600924 0.0 0.0 0.0 32.812368" pbc="T T T" Properties=species:S:1:pos:R:3:forces:R:3 energy=-186.1070797 stress="-11136.25029 223.06518 -5.73744 223.06518 -7521.943969999999 11.86547 -5.73744 11.86547 29.61408"
Si 1.9334875000000002e-05 5.30504454058 31.093098353903997 -0.00045591 0.06616023 -0.00311696
Si 3.8669595321000005 10.378267816868 29.022834807311998 -0.00035035 -0.02479355 0.01101562
Si 1.1600925000000003e-05 10.682861677412 32.666451399504 0.00080521 -0.01286121 0.02291245
Si 3.86696726605 3.825509097316 27.387171074879998 0.00025525 -0.00227833 -0.00195792
Si 3.86696726605 8.98126134694 25.524150444575998 0.00024958 -0.00607748 -0.00503588
Si 3.8669711330250003 2.599326233288 23.677207874592003 0.00016719 0.01517376 -0.00532403
Si 3.8669711330250003 7.781493786859999 21.793384202976 8.953e-05 -0.00073291 0.01441693
Si 3.8669479311750004 1.2208116362159998 20.125531537536 -0.00203774 0.00044313 -0.02488553
Si 0.0 6.294127719895999 18.700720081872 -0.00053193 0.08019462 -0.04897347
Si 3.86696726605 4.506506537963999 25.078525674768 0.00024596 -0.00011693 0.00305212
Si 3.8669749999999995e-06 9.641435129008 23.27036732376 5.446e-05 -0.01693 0.00544443
Si 3.86696726605 10.980297767847999 26.779748518464004 0.00030858 -0.00103725 0.01724322
Si 3.86696726605 3.2252424867839995 21.390021763152006 0.00048756 0.00299741 -0.01486016
Si 0.0 8.515066615075998 19.486215359423998 -0.00064784 0.01698401 -0.00788815
Si 2.3201850000000006e-05 1.098711911116 17.682092929680003 0.00317447 0.02170814 0.02141794
Si 3.0935799999999996e-05 7.816308159783998 31.363308204383998 0.00080751 0.04674024 -0.04313334
Si 3.8669711330250003 0.47400215371599996 30.650459509584003 -0.00016536 0.01375318 -0.01544864
Si 3.86696726605 5.782248549319998 28.722503203008 -0.00055272 0.06931387 -0.02147845
Si 1.9334797660500003 7.086412824475998 28.284622152047998 -0.00045983 -0.0024005 0.01572382
Si 1.9334797660500003 0.6698373517599998 26.404014092496 -7.207e-05 0.01647885 -0.00616901
Si 1.933483633025 1.797655981192 30.187772308416 0.00061432 -0.01704701 0.00736471
Si 1.933483633025 5.80521837884 24.595527617808006 -7.605e-05 0.00012456 -0.00281127
Si 1.9334913669750005 10.931979919387997 22.894436023584003 -0.00035727 0.0016987 -0.01720953
Si 1.933483633025 4.529244349004 20.95200946272 0.00050138 -0.06885118 0.02074795
Si 1.933483633025 9.838801649019999 19.023593782992 0.00016487 -0.0143728 0.01478973
Si 1.9335184358000004 2.4957879865879993 18.310876337664 -0.00081394 -0.04639598 0.04364282
Si 1.9335068348750002 9.213651056507999 31.991829113424004 -0.00315084 -0.02335906 -0.02087175
Si 1.9334797660500003 7.711888242859999 25.997567290080003 -0.00010014 -0.01421196 0.00339282
Si 1.933483633025 1.329941528284 24.150362221151997 -0.00026521 0.00579458 0.00510555
Si 1.9334797660500003 2.5301847262479997 27.880308153552 -8.995e-05 0.0009073 -0.01332782
Si 1.933483633025 6.486204218564 22.28681659296 -0.00028157 0.00322608 0.00191688
Si 1.9334642981500003 11.535042352604 20.651448171840002 0.0003772 0.02461489 -0.00972211
Si 1.9334952339499998 5.007156014107999 18.581578373663998 0.00037978 -0.0659653 0.00327571
Si 1.9335068348750002 11.230413689288 17.007372206495997 -0.00080965 0.01297945 -0.02245709
Si 1.9335068348750002 4.0182120458799995 30.974580080688 0.00058767 -0.08058703 0.04843085
Si 1.9334720321000003 9.091400519396 29.548554567407997 0.00194782 -0.00127453 0.02477757
16
Lattice="3.866975 0.0 0.0 0.0 5.468728 0.0 0.0 0.0 30.935797" pbc="T T T" Properties=species:S:1:pos:R:3:forces:R:3 energy=-82.82691185 stress="-5012.0344000000005 377.0694 0.0 377.0694 1865.98027 0.0 0.0 0.0 -164.23401"
Si 0.0 0.045412317312 28.094777146708005 0.0 -0.02153625 -0.01554705
Si 0.0 0.00563278984 24.175830382748 0.0 0.00681982 -0.00621238
Si 0.0 1.36346326496 26.117979718408 0.0 0.00028456 0.01500891