63
Lattice = "10.915811054479873 -0.023998313492288842 0.04672356118794162 1.563099342110853e-18 10.890103769235006 0.07399937776584412 -5.9165753167161345e-18 -6.596369992005769e-18 11.033912939139958" pbc="T T T" Properties=species:S:1:pos:R:3:forces:R:3 energy=-335.10719658 stress="-4354.355641382289 -12069.592543890421 -6852.361656984076 -12069.59254389042 -3453.7167697251352 -3995.623227276044 -6852.361656984076 -3995.6232272760435 -9980.472048892572"
Si 4.937822315361952 4.483368306339998 4.660272435062214 0.8384061714859635 -0.193466238415258 -0.35133466627398524
Si 5.079828249857242 4.65031888398218 10.272926031553352 -0.7604764165424218 -0.508947491518554 -0.6126836438500454
Si 4.906671567657998 9.960322478230422 4.583101247965868 -0.42822153794868323 -1.1422233382023754 -0.2906354510755291
Si 4.933448536949051 9.983714457342533 10.233943217139371 0.28965715691072563 -0.41555790179486773 -0.6678974960360855
Si 10.54536348257699 4.559973127281533 4.751776675066501 -0.5110687268375973 0.4080085409978549 0.008422249012134422
Si 10.499093901736835 4.55283832340215 10.004515065395834 -0.10833114943912116 -0.33806017376412406 0.8454397826931059
Si 10.155298387475646 9.702756054906251 4.541823379660546 -0.037489262978937586 0.28185037503682386 0.44722667013284645
Si 10.479392250720293 10.123440690798407 10.217006160777792 -0.8452287217375901 -0.3350072686963893 -0.42543741889197956
Si 3.625366533949409 0.42993632341225 0.5432326357326774 -0.1159256394961534 -0.31402253764192983 0.34907417436803
Si 3.5861185292619813 0.3917366602595135 5.872976704464269 -0.47972714572423936 1.159354200049535 0.5591517068933818
Si 3.7301743531059035 6.035062361329383 0.5433098731232515 -0.2742571320848323 -0.4278452481281981 0.26050729138799983
Si 3.623060039279635 5.8112916496267975 5.958566767133178 -0.16958356958696136 0.2455449830317356 1.105991807409511
Si 9.093165560252563 0.49715278682065694 0.6020985612629891 -0.1399824327130201 -0.1100255534794889 -0.6847967386068233
Si 9.014749830593749 0.47248824275703744 5.9641278592545035 1.0903800696481032 -0.9532169106785373 0.1591298869979334
Si 9.144925774786474 5.891099532504773 0.4189245725603268 -0.5667923263349498 0.07801501809039704 0.13635400445087764
Si 9.046083315837791 6.037521800070926 5.935704499523277 0.9241859324383553 -0.06412099741437295 0.738078020786527
Si 5.071396072228758 1.7105028917989344 1.9217324809582494 -0.8647517253529751 1.2401844076738195 -0.5707375942656219
Si 4.921587929060709 1.773562493160216 7.354235380892051 -0.30032203665899065 -0.08720002401773737 0.776809591160259
Si 5.087779403410384 7.273367026361975 2.0602191222573953 -0.7266689142651644 -1.0379975737480605 0.26333957887102366
Si 4.992094580957695 7.169589224497821 7.322071524674459 0.27823811343842364 0.4588307966798657 0.1715331412079051
Si 10.404601401336981 1.8143378511547772 1.9555072884649571 0.014580163400029968 0.6587307030104006 0.5346779640630432
Si 10.51848636157933 1.7647267782632496 7.293581961465598 -0.524447377961711 0.02935864878143627 0.023598537773316258
Si 10.598428295460241 7.1417789811646895 1.7886083213475261 -0.03992003873547017 0.43480786032096785 -0.2765567053656323
Si 10.444079281647925 7.348850138922952 7.485914097907746 -0.7305264993804196 -0.43280270309713453 0.014129859153386564
Si 3.5876353750371863 3.221369343577151 3.1762221786608285 0.2637441827878414 -0.7020170836714915 0.011648433366816984
Si 3.66260186359705 3.100923661362392 8.982774727231474 0.614091607952477 0.8461002610976246 -0.9847531147269356
Si 3.4442667448554958 8.464228680500858 3.184938969882749 1.3568183256949269 0.8929090634629155 0.962702765308904
Si 3.618915921727085 8.519389591123723 8.779320406546672 0.719376527751335 1.32953444779161 -1.0647724496093351
Si 9.11366276524113 3.1771853486111357 3.5249158953635287 0.16772052114942695 0.06055191352077957 -1.510198698523853
Si 9.189289963582869 3.1289157390794364 8.658686636383054 -0.6701045285693806 0.261259894594572 0.22536688978493832
Si 8.99157344410278 8.777168526809696 8.834423767764738 0.6545066549905013 0.03624087529642385 -0.22211118765811227
Si 2.303412642528741 4.618679676721338 1.8253843531736798 -0.4048573081423125 -0.24819895439656706 -0.3247933007763685
Si 2.3551364340297023 4.520822849858285 7.547913654712776 -0.007377962066621485 -0.5207649145443514 -0.8155854104799571
Si 2.2464610675972314 9.940255774724031 1.9254950452704966 -0.6930403374363617 0.6233629532190195 -0.5051148987407169
Si 2.2723395910868054 10.017161423396853 7.379811991084979 0.0402652733023495 -0.3183503348481235 0.4684184956556561
Si 7.864953333412974 4.599651525240705 2.0262677721436617 -0.6731874609136481 -0.15343524183111987 -0.2715140822137486
Si 7.804887559920515 4.522456835018237 7.2686894538749 -0.3859084703615182 0.04980059860398663 0.690316887353302
Si 7.228474920220777 10.327912055086841 1.4726411904223145 0.3831017149873469 -0.1798435789527503 0.6395337564303725
Si 7.655333012310162 10.17124375500088 7.434760877521894 -0.10692271624363353 -0.8550822005358413 -0.015736347973998293
Si 0.734576776719852 0.3296435948503266 3.260620578732311 0.19793958781730978 -0.3725392854663344 0.09843613010896224
Si 0.8958067629867451 0.503648358993377 8.746229701642193 0.2784342536580669 -0.6324245729282073 -0.271988281895327
Si 0.9505902585273698 5.894856890253232 3.328821194609134 0.01863964377834634 0.10367185548485232 -0.13191029440888055
Si 0.9456074225440516 5.922878339781706 8.744387038181355 0.2100681446128349 0.711173968448479 0.4658587717861538
Si 6.307663589350388 0.4282120661319084 3.359991998662204 0.5340854952172266 -0.283726169777149 -0.4346928773757057
Si 6.324966037653721 0.523711391168154 8.837678772081784 -0.12358004060299459 0.18892394994922848 0.5234799272033434
Si 6.467791493542805 5.97703997829436 3.4872792183281223 0.3437634875788128 -0.04630817893583179 -0.6107394566563265
Si 6.380171528549998 5.838943870069547 8.743725003405006 0.40845207413735657 0.33320498566560053 -0.47216705615680826
Si 2.136041757663917 1.834170600246672 4.514900632089044 0.6141186315847776 -0.4692041115423429 0.3429344744856706
Si 2.2431313530058183 1.7321245669748422 10.15838298133214 -0.15731873494139695 0.6662464616827015 0.9641475791387054
Si 2.2733036395798574 7.275381531342529 4.771946667919249 -1.0994554969026538 -0.09379409306139345 -0.04482206235583585
Si 2.3319114135710426 7.334614227248577 10.179424653307079 -0.9060902756143172 -0.8500147085376856 0.09240056066880087
Si 7.677101400785154 1.7625417024571304 4.674958573184209 -0.4722949176366503 0.8013933808149992 0.0911351782907174
Si 7.771780672285081 1.910944307649066 10.235333490169703 -0.3534247690626764 0.2586546100427574 -0.6713325436048956
Si 7.891913584534284 7.58933797131357 4.652625933395389 -0.013442793247151155 0.007176865903252368 -0.38070144236187425
Si 7.615792537738964 7.373408717436426 10.108564864411923 0.9769761078096665 -1.1229209240804032 0.13769048227687158
Si 0.8522326712784627 3.1359732759001084 0.49918525527963087 0.2494056220120056 0.31551460227196887 -0.10615223874898123
Si 0.959148347081815 3.155482671838766 6.0517481619042135 0.5498039778685769 0.5222784539995642 0.37746491679419075
Si 0.9207227296596587 8.688331833887037 0.42545664902029756 -0.03595016247373646 -0.5544271150494892 0.8178867133116104
Si 0.7989330134708436 8.707699928651866 6.109587933531186 0.17083509666487495 -0.19740187517621618 -0.9114658719769377
Si 6.329200521793345 3.2476855096081825 0.5887254587807516 1.2801100974727837 -0.43862356677676045 0.8023791024810845
Si 6.302855638554285 3.122420540449405 6.071267153893553 0.20719070846183085 0.3621841100637872 -0.4634384923791108
Si 6.262317960205895 8.453196498861308 0.5624206103338418 0.025230416887228078 1.3302283498712852 -0.6672783227580076
Si 6.341558093337441 8.742682805209299 5.999745330222046 0.026550826428283183 -0.29552623483805235 0.6560828149091001
63
Lattice = "23.097417634455955 2.9386079041803987 6.150462823984267 1.129265858039529e-15 8.635935037132546 -1.7537534053207366 2.8452976649997897e-15 -2.7387611711549005e-17 6.408632070956906" pbc="T T T" Properties=species:S:1:pos:R:3:forces:R:3 energy=-294.43754529 stress="-43938.72519017601 -15130.718435232533 6756.591582642852 -15130.718435232531 -37243.83844394922 4774.085549658549 6756.5915826428545 4774.08554965855 -35474.776485874754"
Si 11.694139596302085 0.9083547375194382 0.90967968794405 -0.5327941584787524 0.05464612687905211 2.0101816563421844
Si 26.235011420805858 7.494652579311682 3.2083214305228047 -0.5092625781461283 -1.3071418965285537 -0.9250475578868033
Si 10.186527737116332 5.562406431017431 3.5892825639808352 0.7850409435143698 0.14609166649433786 -0.41683841744917705
Si 28.731051571532433 4.40661876951229 5.282314984486232 0.8626383570554393 0.264161287976796 -1.0474057776609136
Si 23.41916053575531 0.8691261596076811 4.17264111550383 -0.622681044062305 1.6986914519088063 -0.690854986167759
Si 8.570917523943931 1.8766499059545803 5.756258960661777 -0.3763731044395216 -0.8190979752638916 -0.23268568694336147
Si 21.85679761882172 2.0657456675884527 2.1847603506778506 0.20057507161413937 -0.3154479024943027 0.10766665477110464
Si 17.622710461772122 7.092119755172352 5.429021389854576 -0.3903535228485983 -0.218568732251013 -0.12375256105380916
Si 22.875896130787616 4.715157229045996 0.7681578659211112 0.14030363991968844 -0.7227527837012527 1.1731117497359107
Si 15.099397901219263 0.44756156995988833 3.7709160141358975 1.269992342926646 -0.6165830630059707 -0.8039410071374702
Si 13.237478768394201 1.3517046241687125 4.61620817566304 -0.5621393232703785 -0.6676311095768419 1.2265895195682655
Si 4.7075193601728325 3.076759043878095 0.30292322072999117 0.45137721627972016 -0.22813936272114435 0.6330718267213264
Si 16.249137942629073 3.7727845029906137 1.7924046693976547 -0.44446064803438645 -0.5488855113024582 -1.1075384791446516
Si 14.348695664643765 5.34485906209688 1.1350969124078876 0.4470982750666153 -0.44283479759589034 -0.17755667929621619
Si 13.313003002863422 2.57363268312766 2.56872713257716 -0.03635673875065597 0.36018384572586254 -0.7565772504290886
Si 19.17297772607228 4.6529249969701825 5.55837962820684 0.12586903433770075 1.4815888472523817 -0.22008218696250742
Si 26.66221819840539 -1.0580341844945718 5.339172368219763 -0.7900600739836398 0.47575396065961 -0.17219653581399158
Si 28.008762117565315 6.108003253343262 3.7644753389045853 0.8280301195604235 0.32225614954449733 -0.12980931636607534
Si 26.91110112142641 2.228808254983374 6.007387616994298 -0.034534765970060805 -1.8516015120860398 1.7898270396498897
Si 15.276781692377513 1.249668680377836 0.7319298688239894 0.11129502802637531 1.3203475768425943 0.23015414302849482
Si 5.766353351386718 5.59558279222745 1.0488303161007364 1.4272751411872608 -2.980965829076658 1.1522660613292637
Si 10.509286220306294 1.2230931833063796 4.055792526954073 -0.07132337890891341 0.00636699623238064 1.548607890941117
Si 23.861834808940074 8.26514489149588 1.0693892077843679 -0.3264112428533624 0.4999021546786642 0.5060666559968529
Si 6.1626753802226855 2.2979111361691027 4.324987117094618 0.3885510698200954 -0.3686796172804833 -0.6402330143644217
Si 6.846083610287931 3.0831984652001183 1.9914952333140015 0.09923880141961508 0.24324741085172885 0.08680729812367989
Si 9.724190940692873 -0.27375309581825286 1.326823958074706 -1.1183951120599112 -0.15210116268687515 -0.401834405464215
Si 23.947874276960782 0.4746652288820793 6.368578120513427 -0.06951114723094355 0.3757550579488436 1.0110746682957739
Si 13.715380448511903 7.657161350112262 3.510937036913387 0.2002252277615865 -0.8718620219124164 -0.6483836402289611
Si 26.52964529197671 3.728031554194945 4.425589823344499 -1.1445935590522172 0.7881971578097847 -1.652287403578177
Si 8.32771046483015 -0.3983757628271134 4.3544347814606645 -0.3684606636290524 -0.06071716560877063 0.5685063863970595
Si 14.56159700016369 4.58602414647264 4.348006923493494 1.0332065123888123 -0.557213578002295 -0.8256396841647875
Si 21.577306881058416 7.085150410737592 0.7034050474761616 0.07898912793029095 0.6576104833154406 1.6712157454978316
Si 19.44437517750787 -0.6280276094192073 5.830599092684877 1.8210760082834703 0.36917627122650076 -1.7809129610153915
Si 12.128740803433244 4.791693244687206 1.6645716854782773 0.0458807535757601 0.48736161990742194 1.6034989213600428
Si 16.220047121346298 2.824604555587235 4.195865998128978 -1.2768120253940283 0.28690879265767427 0.8276148999770766
Si 1.2015147959585637 0.9186866555357643 0.5722203489836711 -0.3291263328489773 1.7466061108381241 0.019399282556520882
Si 21.547577056255253 5.5780356440699395 3.0272455313579143 0.37749352499743816 0.036139158580612035 -3.0757106213798386
Si 19.18346753764737 2.3298476393189604 5.448913783802827 0.6020241125953059 -0.9966734145098367 -0.4205724963256086
Si 17.97935068661596 1.8730587918225017 3.251009328747446 1.7070994566165314 -0.9327764701410062 -1.1516777292298508
Si 15.691810648562988 7.236807332059194 1.5876488747305808 -0.45916301323218617 0.5561584711719301 0.26507982538201913
Si 23.459457736812684 7.370996742871479 3.7357069895380572 0.37661659255663904 -0.17133267502594102 -0.7035829756309152
Si 4.968905701736892 7.480586618796808 0.3579541443232981 -0.21873256224875415 1.193540838917131 -1.4668694487286351
Si 10.770700553250014 3.752747199451049 0.2179319422049608 -1.623600184255769 -0.7629041357063125 -0.7519416733767288
Si 8.64036813142037 3.901595560190034 4.597078408931234 -0.03638245112066891 0.9498224756774304 -0.41195152955392506
Si 11.8286291499209 3.145171258591883 4.908563562108023 -0.5907133232104794 1.214935018519758 0.29957149124435745
Si 16.752567498128897 -0.2011549926909473 1.7394885943877638 0.049901600492598897 -0.5737718243477302 0.6535801920751767
Si 9.867016060546549 2.4238190229085816 2.2889582995195368 -0.9695537056730908 0.9715514860816172 -1.6188664607160872
Si 17.803919674065003 6.138525432179809 1.3722291162974352 0.913392162045081 0.5852207968146429 -0.11025817070162736
Si 10.181971852818878 6.54927781229722 1.1264837109045225 0.19621731554429114 -0.7792088286207813 0.4440980731838409
Si 24.488697311351704 5.140238195637082 2.911108300968034 0.11324779969747348 -0.1971200029123166 -0.3498743084842191
Si 21.66142213210826 3.137627661226379 4.8021354093056425 -1.196574091065875 -0.13466778722177114 -0.5449148668929606
Si 12.812548602163947 5.897604927420573 4.952597273067569 -1.249481725893017 0.9815467058791723 0.135046748295323
Si 21.58119207066842 5.677162821433472 5.184551302243784 -0.44908417754955454 -0.07739510898730112 2.340707968653766
Si 14.27250904357418 3.3010344695568863 6.364726532638781 0.10540225438858818 -0.35067997633411074 0.7757199349141389
Si 25.782860692648036 6.86028773161213 0.8338655705446277 -0.6804054437982946 -0.2877339552673261 0.30179670864921704
Si 19.868459559334056 3.8825040439965663 2.433216607436777 0.13041451760087383 -0.5494725591398669 -0.26867344905656326
Si 4.152266515810835 1.5493146921355396 3.0635568406719558 -0.4139806990393756 0.594821199380938 -0.17075568207083214
Si 3.074949869664149 -0.672683141854056 2.4725976515128067 0.05459620248903864 0.3160779354844958 0.707550682471892
Si 23.795071704541634 3.2353582706892112 5.657232777901354 1.165660482697891 -0.5987663981677931 0.3170819711262046
Si 17.108045404238382 -0.02610997109025869 5.063992115724943 -0.01771927614645134 0.23282257114215227 -0.023592699232509527
Si 11.74176567538668 -0.9045315422071746 5.741506289634436 0.6803782693148032 0.20390997792345625 0.11183928361817556
Si 25.333667805758832 3.012801839858637 1.7039911813467346 0.15610138609760282 -0.37788199728640176 -0.06197776597448544
Si 17.053199909759787 5.399097684678287 3.470479342649436 -0.03616831028661211 0.09920953128572013 1.3670641917047535
63
Lattice = "11.008753904963541 0.08693777117939581 -0.07539717443713255 -3.601286500706126e-17 10.8935793108194 0.021120704968134327 7.69918860489471e-18 -4.865330896935763e-18 10.92417139568089" pbc="T T T" Properties=species:S:1:pos:R:3:forces:R:3 energy=-335.42786507 stress="-1776.5227461009727 2613.260181372491 3591.80099685175 2613.260181372491 1641.5240923121532 -5519.714896644154 3591.8009968517504 -5519.714896644154 -1793.3360462111796"
Si 5.047144056964704 5.113488611082535 5.774735483184832 -0.3722019492541087 -0.694582879447765 -0.5785886173596294
Si 4.9716346297845195 4.9351782064681515 0.1437074747101821 -0.5720750213364459 1.2187078254435544 -0.40011221071311176
Si 4.913233023445795 10.541993325601789 5.794420840039847 0.7047324693883685 -0.17432145308659244 -0.913076655549095
Si 4.8895224847366805 10.440644664851819 0.16267183625308412 0.6626676383698198 -0.6309012630187305 0.49560828443751814
Si 10.378602918659546 5.046342568457798 5.5672854683808515 0.4668338257256329 -0.18406449262220373 0.1093604107472272
Si 10.494106282973753 5.044105368412691 0.22375980269773166 -0.05747312120394752 -0.15857461739989578 0.49744741476380056
Si 10.68562260886438 10.839510383918128 5.998560830910936 -0.32114427374496834 -0.4948826867615548 -0.19999779752502966
Si 10.511287003837785 10.360651309803865 0.22935297845232025 -0.7061939628779855 0.5187789666165998 -0.6197823483548686
Si 3.61596835122568 0.9739299033914889 1.594721464512892 -0.35734993751319033 -0.39298490651008156 0.3510848239924287
Si 3.4350290444646263 0.9815590428185348 7.0112970643189305 0.06864842936734382 0.48301836542346854 0.7254685546158095
Si 3.6711810565398157 6.443762351459447 1.5962071518227046 -0.0017932380595045542 0.06436290690614607 -0.7484126155487704
Si 3.504103987777294 6.353774053812555 6.9507662306154625 -0.5043273914414512 0.26416983270190464 0.9005068186099895
Si 8.91488289725324 0.703548852530797 1.6385492401523636 0.915401584131004 0.8596847965719859 -0.021480899324338054
Si 8.861124594312887 0.9840463202711546 7.080742021881273 1.1069279899761206 0.6242146416799137 -0.07118717590498465
Si 8.960194473127785 6.3929258419663455 1.5756478612560332 -0.2793238105911674 -0.78457969402537 -0.5381083668772753
Si 9.094320144514832 6.49630278701547 6.864771153388663 -0.8459142700144184 -0.004681190976841119 -0.3722773794734018
Si 5.024754484043081 2.3073150903580393 2.980889572910839 -0.5120611825141367 0.0930924149520637 -0.1298537421408464
Si 4.856271818181245 2.3189725074289433 8.418789155281246 -0.029454367699508852 -0.479612654701737 -0.20617859535387595
Si 4.911118282715036 7.863168070396983 3.0524865922381323 -0.474864800505128 0.0021578109144033187 -0.22277151322695415
Si 4.930128516397525 7.672797776594465 8.323737939967428 -0.3525624344179356 0.30989427303268535 0.036746385750326536
Si 10.323978602066882 2.264903572244141 2.9230897820562918 0.23173747228112004 -0.15393964817707567 -0.21611936313506738
Si 10.555874274116277 2.245098741205179 8.377069744721142 -1.302713120526198 0.06960220225223218 -0.09155620790309443
Si 10.733738380917227 7.348497223451758 2.5491116984965525 0.13172259409550702 0.23562258512672835 0.9632199604892774
Si 10.354166938306689 7.787850664079432 8.287294904191436 -0.05943615513162178 0.007210729852137792 1.2030043695530086
Si 3.6813501811656564 3.7820977867533863 4.304484027554329 -0.004007003003088397 -0.624858910512329 0.4212345208477492
Si 3.444361837500316 3.637609355447934 9.709982517565145 0.2776136300367568 -0.40804864768078836 1.205247898618471
Si 3.456831774755322 9.205622849862145 4.5038064588399225 0.6019061312099242 -0.37642969822955374 -0.942036090429042
Si 3.5341511127797522 8.987606461043384 9.742186974839614 -0.09611533319010318 0.4914298670643744 -0.14698164567113653
Si 8.97068318028109 3.6995476741408178 4.248879995150312 0.32533843794862377 -0.4107287988808466 0.13066344040562974
Si 9.15748561466171 3.5856510867567657 9.79662212090429 -0.4306844435822896 0.3131090111909365 -0.4437127743036846
Si 8.918819414345748 9.114102380084033 9.708212801799043 1.0911611953149591 0.4049257601327841 -0.2924352759128395
Si 2.330276104242821 5.089573664706321 2.899340633442082 -0.13714974338256503 -0.7055976476515774 0.16614730448049578
Si 2.1313946886538124 4.9872153842794 8.448120555478651 -0.775147869643668 1.022987117242363 -0.9456659043489568
Si 2.247422989488102 10.436661802051534 2.9031750176019666 -0.3164113963576776 0.46182477499824 0.4005436897816601
Si 2.195810837227435 10.506032386313091 8.413796808953421 0.30799334768039216 -0.5283016914200185 0.22479043636071824
Si 7.564351870307608 4.961399308342754 2.9047153257687577 -0.016577036336651984 0.9922455314461461 0.015230501412406738
Si 7.797846849761082 5.0382319848259876 8.302643365002366 0.21715924953763674 0.1475290216669964 0.8954635323741118
Si 7.658214567990763 10.341500532026457 3.097352164160194 0.8071460189953195 -0.3948737428359641 0.45556477880593516
Si 7.603291184080071 10.478355813922247 8.263742390662348 -0.1666949352178327 -0.6499901755973843 1.0086654752992423
Si 0.7442965546560032 0.9495791543264985 4.314293933467649 0.35035241717528914 0.35784135516020166 -0.7747555265513679
Si 0.7876943648966175 0.9569796555095769 9.832355085539563 -0.5046372304127013 -1.104481171909785 0.067976946781006
Si 0.904173029350337 6.310254457389514 4.268904001318595 -0.6489214971627272 0.1467413036388887 0.012714440804267804
Si 0.7027498123559028 6.478298745117195 9.779351005927719 0.012624653409049051 -0.6982400141459183 -0.7337095176057418
Si 6.368818921169734 0.9515682933397569 4.34583201628698 -1.1015867969645585 -0.43425579757032917 0.42056917788396575
Si 6.155635606578343 0.8109085702355833 9.720141996963127 0.4435910265321363 1.1492123625726374 0.36655424190140307
Si 6.261284635903129 6.449402097899998 4.299120259399049 0.7117618877705353 -0.10922616912688642 -0.03525457450656643
Si 6.311057010957133 6.376380545374589 9.67339746756101 0.12069351641663033 -0.719007520147504 0.278675204823651
Si 2.1695209845408145 2.3557245567723077 5.616979524059805 0.18712973372170075 0.31251596436666773 -0.5204272866708384
Si 2.15935312886007 2.245080559309659 0.2766109439100358 0.6978134259987359 0.7504693869968672 -0.19020453825454003
Si 2.026839848413123 7.779665830908527 5.710413962007062 0.8476739285573454 -0.36058601633785115 -0.25527809869714607
Si 2.1464630097877464 7.711023466742914 0.22147665087603433 1.2547442830283706 -0.25021614885521043 -0.25783425394024634
Si 7.626744122922612 2.369980227543091 5.676876755822322 0.14409989075970664 0.26449149584596676 0.06526751654902228
Si 7.719895244364617 2.2429238064804387 0.2090886405133322 -0.47690577095228814 -0.595039081571032 -0.3951928521639083
Si 7.681853683364549 7.961322955982141 5.454690033805569 0.6000634090000196 -0.39109532019390164 -0.41221214565648445
Si 7.689265299947975 7.756364205165561 0.13781934632791012 -0.5606963415618258 -0.019954442900094252 0.6843667753504301
Si 0.8883669997541103 3.659204755410609 1.6380685766109537 -0.82560370467025 0.20468900865785164 0.04141062942664274
Si 0.7471130189665947 3.654147678552154 6.966977700966654 0.2446955120230387 0.47524839879873987 0.06129324896627587
Si 0.8606915644999376 9.034783096781512 1.5535591866939664 0.12037500480018305 0.7848408794740019 0.3065839497185534
Si 0.7693556449071491 9.129846664264278 7.078513490916555 0.0038690406905677014 0.5516976962468687 0.29788473386937325
Si 6.258883285501474 3.6369643794901876 1.4938039691595917 0.771544621154284 -0.738251340015089 0.24407747320328452
Si 6.3229897731150135 3.670493414874998 7.150055889386869 -0.2651173930996041 0.054642153588238575 -0.5138646689580216
Si 6.373269522640784 9.12674949086274 1.66769492943604 -0.8583973811987078 -0.23173329596476072 -0.9670798826286282
Si 6.314664872958271 9.039519286861593 6.961318980183689 -0.49447944158652346 0.26708268767060456 0.10277560411568396
63
Lattice = "10.92808739334958 -0.005083960072812968 -0.008449208597580467 9.698258088185459e-19 11.103315230210614 0.012635144053654138 -6.623597704602031e-19 -1.2096997173232219e-18 10.95167845203327" pbc="T T T" Properties=species:S:1:pos:R:3:forces:R:3 energy=-334.77491215 stress="-5452.096804828466 -6718.6295803551175 -1190.3656975877886 -6718.629580355117 -24701.58216030327 163.54314944816412 -1190.3656975877886 163.54314944816412 -11637.097314868264"
Si 4.910876282450616 4.831312640622642 5.335832968685842 -0.5080422840197694 -0.14407811858281827 -0.08446510977107446
Si 5.062000979973519 4.743771087770587 10.943979422081489 -0.5473743353705736 -0.33090243648259854 -0.6346831420196933
Si 4.90855155204383 10.256292467631612 5.412768509811375 -0.19294562958134737 -0.924604572911235 1.0909337550381408
Si 4.989181469318864 10.340342652769875 10.916008835314996 -0.7418489520861378 -0.016986641130468605 -0.3164821321955374
Si 10.451439361574032 4.667477830711619 5.417773426863955 -0.15376646466737184 0.9201254485071584 -0.8954583468935495
Si 10.503694911060524 4.743115734975483 10.84751703827598 -1.446765613507984 0.32203830462062466 -0.3326226483585254
Si 10.469983761044531 10.313728370606702 5.353684204562656 -0.9443860470542872 0.10496386076359984 0.028336756599750414
Si 10.419344602940896 10.220032130806212 0.006790040640260626 -0.2554885099000531 -0.2753944127507747 -0.1983551029024792
Si 3.5830538347273237 0.747870688384714 1.2474618857573017 0.7770035787348086 -0.9024967861100437 0.09710696581999473
Si 3.7386082693137443 0.7067922048929345 6.823005192401246 -0.32375538466787596 0.14015004288234936 -0.42016793479648035
Si 3.6398720591910383 6.170339228480975 1.2264784698432059 0.39514577002896 0.09759363029557286 -0.03522456504617028
Si 3.469848630488859 6.256991839227045 6.666034785148254 0.2712020729372935 -0.47410576923640935 0.22321019053696814
Si 9.028488892066585 0.5709929116377727 1.265006474637459 0.49285838614480376 0.12102785433450411 0.256943805010975
Si 8.973627093883247 0.6117520964133455 6.701594885082008 0.4098299747829973 0.07840948723195391 -0.8140415832531114
Si 9.160294137378983 6.261864783512331 1.2850261428477756 -0.019768082373195155 -0.5620764836121662 0.4658759845622024
Si 9.174171437718728 6.226042238041866 6.623498466040557 0.283891755182927 -0.13735123059776277 0.7451894240812588
Si 4.960587497025306 1.9556348228145128 2.7496817156658016 0.10620118393396291 -0.05981767769388061 -0.406010494378324
Si 5.03624108406739 2.1551582963966043 8.203770908276699 -0.12017241525208766 -0.09080526107621645 -0.38102030625323974
Si 4.990456837894126 7.438164784101465 2.693313426673186 -0.46251453899472983 0.9399641880741079 -0.3249481242858656
Si 4.874751170812526 7.495284579370294 8.115358008133432 -0.2638397672612203 0.18381092734649312 0.5700067213869622
Si 10.389287997915737 2.060489105360933 2.5621232704962793 0.880996510326493 -0.5539960841744599 -0.06867165448766883
Si 10.446667232021762 1.9417512546296918 8.01014523324475 -0.15751369320876057 0.4278377855571058 0.2602857356534288
Si 10.40456263695737 7.681176518186498 2.870511584027084 -0.4899609419597601 -0.2928155869715284 -0.011182468598585226
Si 10.490760279082433 7.58394542403804 8.077618524187727 -0.43212729991534365 1.011648761248732 0.06863428481524818
Si 3.558076399438491 3.4490532761462753 3.8759851827082583 -0.034838750964926606 -0.06951991868508361 0.8557508424457478
Si 3.5049701696882494 3.497398827307773 9.468985464804746 0.5669353932241572 -0.5284051282296274 0.7387307108495096
Si 3.5361582155358176 8.881254901105535 3.9761930405443624 0.6374188112504611 0.20393494234353784 0.1860224335415444
Si 3.5484423124403373 8.899293178502584 9.53483790733682 0.27804116500057285 0.8323023950464726 -0.0612419717070225
Si 9.137141491746814 3.3636212806247756 3.979171897083317 -1.2472876232475434 0.26328140178932263 0.009586856957672312
Si 9.040427202096872 3.321720743717282 9.419626250021432 0.31238656068763887 0.6921826817430063 -0.021660967751370053
Si 8.967603973500367 8.865812133702066 9.569390452852987 1.1311338965931976 0.9715272003734868 -1.0879695070111979
Si 2.2352604935504985 4.919483396215341 2.553931415014158 0.0306164580460367 0.05388575400472152 1.2427600286076896
Si 2.1294190001519078 4.808369964430274 8.095108354675624 0.1156196582119337 0.4938691886229178 -0.2666812015100301
Si 2.358297423815895 10.353415585686939 2.5758019168828694 -1.0555152980696785 -0.04290402873077155 0.2707477716754846
Si 2.3361761788457684 10.584385974442846 8.282130167600997 -0.07722731692253614 -1.0585458779792167 -0.2594390187914056
Si 7.717426428516431 4.758747524605371 2.5598453213782566 0.7805888871791511 0.07323762066525022 0.36429774835759465
Si 7.726840369695919 4.964296259520497 8.05872687885797 0.13100945558164623 -0.9497315632952281 -0.0343491985672385
Si 7.575079397083309 10.479569790716791 2.632104495804772 -0.01778226725562421 -1.1532881497979321 -0.5752558354957209
Si 7.710329850880358 10.410270263067515 8.153009878651524 0.2600848904306991 -0.8503165401079881 0.46850687046980066
Si 0.7911227235088926 0.5322009162702905 3.9430532615485108 0.8586610895298447 0.6990129393020101 -0.35967219365483066
Si 0.7282953881183787 0.6010597676321483 9.560048671133401 0.25162131454063014 0.25928889278922357 0.06322431042254759
Si 0.8725139189577842 6.225725207369815 4.135200459989434 -0.5188295104274335 -0.5433556029432006 -0.7065483482351569
Si 0.7800906160365688 6.220480022198168 9.530402477563747 0.7932310442184567 -0.2725948060913277 -0.4054893670813227
Si 6.253453381960818 0.47937186275077925 4.155231079878203 0.17539566690557626 0.9898446003701605 -0.7794903033353878
Si 6.322810423913146 0.5938976409735817 9.492257781515317 -0.42667020006672224 0.17947745577902963 -0.019157869850645902
Si 6.370640364041798 6.113411057677562 3.9776496137784836 -0.03823503134757313 -0.36627338797264625 0.16106236250915043
Si 6.305582463179482 6.192249214050711 9.47692543168247 0.011927601594605066 -0.21108279776537708 0.4047279416333681
Si 2.299945029378119 1.9369277383695684 5.301762297021566 -0.19464699706492505 0.17927977707221415 -0.17778809907925097
Si 2.1332812150812135 2.0080917996914414 10.886176463211658 0.14711672739246923 0.880398709060439 -0.6578371837902726
Si 2.078135872138729 7.724184212090164 5.42480440443016 0.8283885683339202 -0.2528157619447709 0.08610362094784467