63
Lattice="29.300129367091625 -2.554050078672419e-16 2.0327568452579947e-15 -0.9542495204782543 8.974945527183996 -1.2903531657179505e-17 7.345558042870807 0.9246387390926526 4.6421250338647875" pbc="T T T" Properties=species:S:1:pos:R:3:forces:R:3 energy=-297.62773938 stress="-26835.482313844514 -6186.86413845769 7382.051698591529 -6186.864138457689 -5899.927368740395 553.9588188649471 7382.051698591527 553.9588188649474 -17687.42441741509"
Si 16.140591961682112 9.332006222552458 1.8144674119867317 0.11771672085490674 0.06690861298423749 0.14152360983567475
Si 12.73387781076618 4.1137517219117985 3.657780988933896 0.1810808402573928 -0.9113705086924251 -0.26223981222287346
Si 5.802351633069991 6.255562440738269 0.0906049964109734 0.8586126045459399 -0.5967008654224305 0.2141647324758139
Si 29.281111441114575 1.7860708170490582 1.7965859463562859 -0.5344824547315569 -0.6150154937328466 -0.14092916412324308
Si 9.769475021020446 5.576737989937638 2.378337055600218 1.8638681272137 0.04996613277356794 0.3275327772285197
Si 14.225294494225466 8.191593339404836 0.5866114141543926 1.102424081670789 -1.237930391838984 -1.15254484488246
Si 5.8704660834291245 8.628967109827698 0.13727692150144932 0.579369382400266 -0.49044380773964713 0.1462970201010213
Si 25.702632011391188 5.687127838466875 4.127136966857897 0.557434218008718 0.19702946651741912 -0.15371873148361118
Si 8.261896766712608 2.704733737748497 1.272898537035928 -0.4180783799648589 -3.020954376951405 0.8387827480426772
Si 28.04137347693321 6.822653124977607 1.996262312562947 -1.3801175599146525 4.23026840038605 1.6450892176152694
Si 3.02147096567161 4.724139314054139 1.8513490953807858 0.17628269660380333 -0.4901807288443118 -0.9014201034142467
Si 24.805308267718694 3.0235676143401133 1.9041625518910659 0.13874638373803522 -0.35975434727562833 0.445053259700484
Si 10.13525283095042 0.6654311245601482 2.54833631646538 -0.45679835339556496 0.306856411012193 -0.2582241273365803
Si 6.797572992237094 4.78042776244004 3.2252602731536113 0.048648831426573225 -0.7501332826493414 0.6332126670073093
Si 10.458739714753081 3.1532398885321493 2.8323786630374994 0.3566773822283796 0.32590923772055164 0.4530377507407977
Si 5.9892973184381235 1.510874839551898 1.1964659483533446 -0.27432925992526236 0.6561092411725591 0.6134296348920464
Si 25.60442230459503 7.110772406814718 2.0989786131872687 -0.5846448214992915 0.7817332008488201 2.2006576939188833
Si 17.524551992834475 9.35691186070452 4.021793223464404 -0.5120850132629591 0.28018677228181776 0.2657709389584481
Si 21.996174305871556 8.084166353831 2.87456165322023 0.6118778270166192 0.5509066209803003 1.152623270856608
Si 33.52987196485242 9.255445051857569 3.541129028957908 -0.8134350468346552 -0.5579809887786086 -0.22386069440816841
Si 26.248427537703087 6.018728740425571 0.3361594843273196 0.39025486404807874 -1.4063053828267733 -2.41678741640417
Si 15.615400144236983 4.83763100327769 3.289047713243948 -0.5108358997965006 -1.071016065025965 -0.728246163984
Si 11.744062863474742 6.242982005015746 0.7632953350683206 -0.24168076955835704 -0.04679158214295513 0.13277750878046707
Si 29.319787604911532 8.855178327129325 3.8035390728722205 -0.8146568360546692 0.09939795268038858 0.07891317673222839
Si 8.067744401269026 6.818774309464797 3.374142507239723 0.030836668260313036 0.785181579167549 1.6794676036010778
Si 28.107858758309252 4.1560363937246905 4.161238017356667 -0.44318445743825796 0.008735491499384759 -0.23926062386998953
Si 22.92609775722496 5.432047676535028 3.8127026276890668 2.0142389112565446 0.03949722089873601 1.2447369460522648
Si 23.775150189776593 1.9180950737630582 4.178571712233119 0.5488891430603184 -0.3730943687295166 -1.0059867745430766
Si 19.09346331136666 2.8667089800708765 3.5335948600279456 -0.03976889329665209 -0.27175789269771117 -0.3572672627201353
Si 26.91275426581757 1.951333360195937 3.167479742857099 0.5788434838061374 1.0681831194163778 -0.24790556651054121
Si 31.365415359516593 7.651788623864041 4.111998997122464 -0.3314702695518641 -0.1642110242567882 0.014924483669245196
Si 7.357691599267289 1.1091908605408884 3.4241056989792105 0.1617572468700729 0.8924981256897454 -1.1720636095631136
Si 30.014385505814186 5.452784603385383 3.350606933318029 0.8500136345574122 0.8106626203571174 1.2021922300165333
Si 34.89714179881492 2.7144389136264557 4.23406831701297 0.2427177876665189 0.17162674872505887 0.703823242943501
Si 17.400781653020506 4.2770063859293765 1.577793309260169 -0.3665236391529772 -0.49483180108687436 0.6741760036596591
Si 30.41695082058557 2.404875946391054 3.9187983953380447 0.2175929903002903 0.21566603938825 0.8848310451575992
Si 20.439799831862967 5.768121218760311 0.49530545686330646 0.11583308152636859 -0.5749095548312205 -1.3241818877891138
Si 11.835582614238389 7.388760710068777 2.90281362617633 -1.0794164613235921 0.1596328710779212 -1.0208050331511813
Si 20.25415345796245 8.046833522545286 1.280947981844652 -0.13203428594271166 0.6372219393079189 -0.5914363856687901
Si 7.810068427701218 7.521617554077604 1.221640192411994 0.4554918327315435 1.0042619387632554 -1.2845275247498205
Si 25.52298806099345 0.3730511596603598 0.5912953183135629 -0.21842792574171865 0.33199864727442474 -0.5960575252289803
Si 1.363188499823704 3.1599119839909817 0.36954564757087427 0.16549589379872542 0.7078020374628264 -0.1603928173423421
Si 17.97360526708923 7.153768459483326 1.0937542898540538 -0.2579626679101783 -0.1321922303650842 -0.4270648472011722
Si 16.607477416819137 2.260142234131173 3.9176982117050203 0.06630163115443881 0.08573413265641591 0.1911858444666935
Si 21.06565059337655 5.619989750618544 2.7500320070617725 -1.6713773873239137 2.0148546956956563 -0.1866906012005075
Si 8.260655209141696 4.86281357136862 0.8117266255466308 -1.560233045752757 2.1815845259248716 -0.6263181364569173
Si 18.83739533369349 5.36877043451681 3.353266870962433 0.33094375708696916 0.9267254282629217 -1.2071064697480942
Si 10.328195169469536 3.7328922890204006 0.4334027195367186 0.5627468753701012 -1.052601752407989 1.827803207089697
Si 29.325210200826536 8.276387031845529 0.611971343214397 1.1432343412097328 -0.05912347035648266 1.1741602645647395
Si 5.476299721069546 4.074982048966811 1.256219381789252 -1.0183013318173275 0.4168197722293167 0.22170545878223522
Si 14.673922614631344 6.826632056420081 2.477502130573637 -0.7236060623377583 0.5627912958156203 0.2947169255835878
Si 22.35053276152401 1.5454880416717995 1.9745650201546598 1.7785051824659333 -0.944017372319209 -0.22340195324299186
Si 21.23951152865609 3.506878782552785 2.1234240436156036 -0.05540395930111606 -0.42908139183699556 -0.44344694705558846
Si 14.352243602728732 1.568348485589532 2.684197389831501 -0.1867074591192409 0.34294149888202674 -0.6527226505026438
Si 16.953100486294524 7.090237818086779 3.4301868827735715 0.3106483218478722 0.45135898879162056 -0.2579341603241919
Si 24.489521999697192 9.05674501918489 3.076962946821768 -0.2714109268802879 -0.6091742277540654 0.24475841634120718
Si 23.546155773071177 5.143526724457254 1.4378332394891438 0.19313424837253976 0.09940349052578538 0.18601851632398836
Si 15.549764619753665 2.5880589984955953 0.9380667004682958 0.5296933553975768 1.1822821178945178 0.0497865900073254
Si 32.092574062442985 4.4751582649919 4.208773377703445 0.2523684834136998 -0.5604812144937329 -0.3029632675306459
Si 12.161091606232771 8.996994848430255 0.714887255215178 -1.802611340651726 0.6153711104856917 1.219729506951346
Si 20.01507878989243 1.6328137608653037 1.3229267185258902 -1.2390958446137215 -1.1668997098629093 -0.45565563092952466
Si 9.780010492391405 8.538474425790172 4.594831064019774 -0.7366642755841855 -0.5138850334964363 0.07279809523467776
Si 28.845132336585788 5.007499652384499 1.463908055804366 1.1430637670485695 -4.357268623301721 -2.1545196972479372
63
Lattice="15.523822812581503 -3.528386310400189e-16 2.3596836291887584e-16 -2.7753555824917586 8.459895399872554 8.264080369122866e-17 1.7042646973464413 0.6049220410537424 9.027732104392665" pbc="T T T" Properties=species:S:1:pos:R:3:forces:R:3 energy=-295.77170067 stress="-5855.617923815217 349.31511283673154 -13756.28277836602 349.3151128367321 -10150.834987883452 -13810.625098464032 -13756.282778366018 -13810.625098464034 30002.38327169868"
Si 4.897975572492755 7.601644563757916 5.661931771644053 3.4494201761476857 0.019234335810731057 -0.4237041570972
Si 5.810263518070032 2.501115094510583 8.450887106118287 -0.08498831165203141 1.076028766577804 -0.28577637595567906
Si 2.719111091047451 5.241582483200519 6.1417467052604175 -1.0687073634822717 -1.160428329136527 0.17297207840513465
Si 1.9921965829808834 1.9933979899672531 3.6279205343996535 -0.1410740007329029 0.6545173518641879 3.0228324957025836
Si 9.917116541391255 5.9976958894943735 2.0402945387890554 -0.48373092358586456 -2.4080423521800247 -1.660721861659239
Si 15.283192744169453 3.3154086231828965 5.123517828938075 0.21716308796130532 1.6182999665335647 -1.4483580911218807
Si 13.441285591109827 1.0443088307584205 4.457171894580747 1.8803689496526093 -0.9932627060370413 0.17103388007874598
Si 13.731193155427738 4.272610816526963 8.675018611074043 -0.7424786989632864 -1.627857864337836 2.706515632143619
Si 7.592452780729456 7.904948782720533 3.866225578759307 0.114065493945107 -0.929119131998069 -1.3168947828458002
Si 13.613433596956755 3.2188434874177165 3.272579971038655 1.7255688754065688 -1.1764454520612633 -1.9722973805984207
Si 6.855412910303701 0.6978721312470789 3.0709726576833587 0.9068224902017269 1.1216701401744258 -1.718503894394927
Si 6.966425372334685 6.765871706401194 1.5458907900919912 1.0896718055410524 0.14377258218426991 0.08668215036105323
Si 2.539048028585963 3.8410819901834192 0.5850873176856889 -0.3389122074932363 -0.1162736010043312 -0.19876094142481107
Si 3.17426299475103 4.031701329772835 3.7339963866262678 0.11043074471920108 0.3405519271941445 -0.8426456025564183
Si 12.738788014838317 6.658746562869484 6.233098326424767 -0.4341016275345179 1.4697615903837744 0.2648463651328625
Si 12.329865540718975 4.327711213168741 4.589211504339594 -2.558484905762786 1.2821561799425027 1.7812095813666324
Si 8.402236611307076 3.8508366216074235 1.3783451099665682 -0.09873208083371782 0.6640045222579946 0.32044365015294124
Si 0.1929935717260952 8.359655022458169 4.75813842747699 -0.47633599955142314 -0.11874648403839577 0.5461429117198239
Si -0.0507402671923799 2.9086168532828562 0.21569057543814962 0.5337453515880031 -0.5377597097201524 -0.014780847400742866
Si 9.834613519636427 2.207859272916752 0.2457529233457773 0.3755957632813837 0.04609917397788591 0.22644800623078995
Si 10.008014103484184 8.308101216731725 7.531692450981132 -0.01687415615113099 -0.07713955886302447 -0.04902075727713035
Si 12.805667940014812 1.2400739118817372 0.00967772881590932 -0.04119146553453445 0.7802745902855516 -0.16118356849208823
Si 3.741740209464307 6.251737130062324 3.5944637592207758 -0.20096450534704519 0.04877050934633877 1.0862622401150623
Si 2.7505558348541332 7.591358605642981 5.942486602252265 -1.48642711246406 0.014902444230036645 2.6833673141896632
Si 5.003806573344055 5.1128786684193805 5.881865381171266 1.4774711936833453 -0.09387127409124792 -0.07265210988434877
Si -0.10716015840047254 5.816098845675799 3.574702053644259 -2.1610455998360436 0.4722805289928598 0.865597204157852
Si 6.935531506464046 7.189935433020839 7.324695581559513 -1.6431272511899455 1.6543743633622636 -0.6124450792411328
Si 14.882817287784484 0.5247013998743411 1.4144470106520342 0.4342703489914863 0.55779481426138 0.013292907188301778
Si 6.442406271988084 1.7622240174550547 0.6102205238643182 -0.43917324453681456 0.6614930206475952 0.6797718376600996
Si 12.290108511009754 5.210273980013967 1.8168220582769201 -1.1154711951074272 -0.5272475436948932 -0.25614973216360953
Si 7.009963907061148 3.6333240423507216 6.603605479721146 -0.6883897945671782 -0.3126294328059205 -0.371198379728943
Si 9.791359962143916 6.763901993767664 4.0573516951414055 1.7322860023355864 1.6901949430342669 -0.6566510032702112
Si 15.152456211578654 1.6896890037198697 6.611315162938299 -0.3163291327863261 -1.8021402316192157 0.8268977377116791
Si 9.691513782262724 4.2700075136165125 5.021901676371029 0.32405232939820744 -0.36011786868487294 0.08960910561284256
Si 1.6725128697192717 1.5520228619092717 1.5938912416910473 -0.5121788869632534 -1.0998474447066873 -3.6014930371809446
Si 2.97382485031767 6.438854971324255 0.01949087361338383 1.3800637723463531 -1.8368809229926804 -0.23934659207586165
Si 9.79192513615766 0.9004004461016732 8.810822785120422 0.41440396440261185 -0.6881898704882414 1.4095581487388753
Si 2.2515541120270806 8.201749145590991 3.9260974980756393 -0.8096596541387164 0.14174503815960432 -2.051900800904428
Si 3.30665750833539 2.7382893250376314 5.677992107057767 -1.857784514175137 -0.47566435195833134 1.8514066383973984
Si 1.603453071171508 5.5332583244440094 2.2410713007907486 1.6567781068129783 -0.22251523231266662 -1.1380317529808126
Si 10.06968650224407 3.351126527760093 7.397603546034586 -0.5192949378844377 1.397303674476766 0.0077016315315061165
Si 8.8378968442826 1.1490798725129516 4.348017585706535 -0.5617217920640682 -0.07782339389472416 1.047108455708124
Si 1.8462655332813924 8.29145331962848 0.30330471551128063 -0.7340767421757659 1.2858187876783702 0.7431076128579549
Si 14.50623010296815 7.4701460305308025 8.419596986644464 -0.6544480854236925 0.5708180746948134 -0.34462032515953206
Si 11.913106298787156 0.9442539645514334 2.394064276763891 -0.07329299006004907 -0.3235565006803672 -0.4891077626539043
Si 11.30820624864993 1.7643250454711144 4.549760315043397 -1.0110155710083606 1.2281070592881072 0.039398324552538326
Si 10.488819949987391 1.2309738479368018 6.6750328961311025 0.6688420948504719 -1.1757463850900676 -0.9318154641016633
Si 1.774587184026214 7.636858362028313 8.137444247453775 -0.42675147775262506 -0.08831235126000617 -2.038078983773513
Si 6.3560568193014735 3.2258512534357133 3.475261584514374 1.0198110620761989 1.3289854235496763 -2.2677061730115047
Si 16.23515103431598 0.34121770488859116 4.820186030230481 -1.5434767116822874 -0.7313622369007207 0.3505447783679584
Si 5.311421825033971 2.0980785230219796 5.028925251948249 0.9200691948783757 -1.2210356489527898 1.2234294016236624
Si 10.575527047248402 7.432172592390047 0.4207103715289071 0.026067587718531536 -0.36177227988307104 -1.1594592346105514
Si 8.926249815150014 6.571961675044836 5.9667802293451855 -0.9298251701461255 0.02372630272871863 2.9061678323811817
Si 13.602015210895974 4.607561699790524 6.5743827108992265 0.7171647357579631 -0.47915470793378534 -2.178437412407646
Si 4.682868650617068 6.965837319034282 1.6598839633741576 0.1552802829400319 0.43316283817334794 -0.8215454427680616
Si 2.8357589854801915 1.3083325140673934 8.134925510196648 0.014784270711444971 -0.12865347329099688 -0.01654584606228238
Si -0.2288217496604105 7.410112676812965 1.2492395131416483 -0.20973827407211487 0.7367582725016262 2.1379181149578605
Si 10.604561490527985 5.781863943553869 8.267335256971775 -0.4892369748565238 0.19013837265748562 -0.3469101637700969
Si 4.918706675477878 4.139967080835987 1.0851333989479985 0.6087759053455996 -0.46708598708987725 0.44916073960718145
Si 0.2924014112158851 5.7153795448837 5.947072690161295 -0.08468791088580305 -0.230537496534165 0.21942616125830508
Si 7.9482186798458185 5.3472033903141165 8.069754312135037 0.9709376964806458 -1.2995218737939649 1.059924301804505
Si 12.918824068279775 6.550673345078128 3.5488466288972784 0.9153290009579572 1.0311845668131958 1.160731585301157
Si 13.946756372395077 4.894088198657378 0.26318547403935927 1.11448898776114 0.4648115697764533 -0.4627652411316364
63
Lattice="10.984366629248088 -2.4411957175703907e-18 5.762048553264752e-19 0.013880464820886708 11.117492511537902 9.03057228214862e-18 0.02985107417062292 0.035226440761769756 10.900309205563442" pbc="T T T" Properties=species:S:1:pos:R:3:forces:R:3 energy=-334.69215136 stress="-12776.639949958135 -1690.989152183389 -3040.077849344216 -1690.9891521833893 -24182.611169314645 -3920.281457989416 -3040.077849344216 -3920.2814579894166 -8005.4525207272145"
Si 5.67627478431979 5.506497724080407 6.296607213830546 -0.9947873844252475 0.4831464310187562 -0.19416209483429472
Si 5.563997521302506 5.459669712604644 0.9089876849611412 0.4641070875885246 0.4529811030457597 0.15027033550933586
Si 5.583796897826541 11.136962986280983 6.441112612968698 0.8347931799927948 -0.31632137971247204 -0.5170873898880242
Si 5.630166054987373 11.060443556738276 0.8618983491931069 -1.028382611966742 -0.048518663892850866 -0.31394670565701893
Si 0.2293357400996896 5.669894935171029 6.342388512493911 -0.9431156085028745 0.03110414610963728 -0.11731241171745424
Si 0.1776431336625576 5.504683616347169 0.8020883525821801 -1.6050692840275644 -0.17581825482178426 0.46797868168406
Si 10.954875997249133 11.032406598784688 6.2874291534794615 -0.22064216350261 0.2978824038604104 0.10326601578681606
Si 0.17644250355002636 11.085928590261238 0.9077777506393235 -0.6492955385990946 0.17641988744685977 0.16672169043690566
Si 4.1137185347136205 1.2993201991973191 2.221286810528129 0.16336369572887383 -0.154018347892622 -0.10687763960864496
Si 4.221290499710829 1.3363748558252972 7.732417743005772 -0.15200850607453067 1.0426379435530113 0.36027252749635647
Si 4.208068231472006 6.805555450997009 2.344176896511651 0.4463101976601172 0.2535591799187303 0.05587396033632246
Si 4.226140408726152 6.850742090090492 7.647035620998594 -0.5167061854044366 -0.18649297827380867 -0.2529637324961566
Si 9.734447584794651 1.383569169805873 2.293719365199098 0.5936423567428573 -0.8724914856279853 0.4328631853879273
Si 9.654586583627996 1.371173072570079 7.708480663990355 -0.0021727465063585295 -0.438353918179467 -0.28591398289790165
Si 9.647562173060187 6.812574196765729 2.2455290982013025 -0.2724711269889144 -0.24466674324062296 -0.3702734216026106
Si 9.645231454488897 7.060195374436275 7.6228696354898595 0.07825996280913418 -0.7784993878961127 0.14285967213330236
Si 5.523009713161368 2.6129721143837923 3.572609043051035 0.6390837692262211 0.6765199114739744 0.1710706514384931
Si 5.752203598822137 2.7200524888054396 9.06893735562752 -1.1246754566300419 -0.5368589781665385 0.5976339746693258
Si 5.644043723160924 8.293959441135653 3.628963641643798 -0.7525093904789437 0.36142137513196293 -0.7587594210157141
Si 5.532185268207017 8.272665511042803 8.939332679173374 0.02936665166135584 0.27307421619368966 0.8275940096489152
Si 0.2717224807370262 2.6465747422532284 3.608732667758272 -1.4933684805188068 1.655868528859487 -0.557627919704164
Si 10.990201499010483 2.8180982265447887 8.993430913760584 -0.12638896238023997 -0.8559261256630242 1.08318616240538
Si 0.7057623603286619 7.6540044382685 2.789945041473168 0.27828101479879336 1.0379895418466198 1.2022931937886057
Si 0.176304113050588 8.20467721065532 9.013520183626436 0.27229157193491904 0.4748258145870751 0.42171516830651157
Si 4.289089786899722 4.134042354564639 4.934024961898291 -0.3006494723560781 -0.8404357269444442 0.5048612914970446
Si 4.274869661995744 4.0932662855373065 10.42539363378625 0.4969337136921521 -0.1859182311044518 -0.25114193519455763
Si 4.319642827413709 9.70457968237688 5.059890832294933 -0.22569964431761103 0.15808211739718653 -0.4915707734174562
Si 4.122502166190844 9.639399690426503 10.33421254728171 0.9592805031189535 0.10938106029081797 0.5697828822650376
Si 9.823889026689038 4.124286359251245 5.069788313053584 0.483806720410717 -0.1843982682266968 -0.22051178375580033
Si 9.684749418582049 4.141858703315184 10.452251995668757 0.13168575145116274 0.16968374869690672 -0.23754454700605504
Si 9.909179086929901 9.624022759709522 10.498894418759361 0.0329264384204042 0.7724584339986653 -1.0735027563115078
Si 2.825566809516463 5.44817306151507 3.691705821431021 0.4393043993701089 0.26375654005750526 -0.31538443931000143
Si 2.893118934364279 5.444315311308361 9.099621726041182 0.056569412512657104 0.3074040209502081 -0.3307555205255982
Si 2.835732188823778 11.111944112570589 3.766721749383708 0.30072933556506404 -0.06111365281984278 -0.11263154759198778
Si 2.8235443939609697 0.03893486501414767 9.065220350188426 -0.5341713450730284 -0.2365818962205883 0.16641596935707406
Si 8.383467469661891 5.527903003175303 3.855373964152556 -0.3023654085552953 -0.09095810140560377 -1.1698053528827745
Si 8.257294194787091 5.540161362924181 9.117487332829102 0.11841671699711181 0.43307440872355935 -0.5435350444333126
Si 8.266301498668964 0.05219541422990296 3.6496197275883406 0.23848143629655383 -0.31752530040478844 -0.20818928125516878
Si 8.41548532836615 11.08369471063656 9.171236757521736 0.2587912659689417 -0.47372238145295187 0.03272187737557411
Si 1.4054509110267974 1.4179752713262141 5.0932130775363404 0.7381107000365813 -1.3060774111378137 0.3767839051479397
Si 1.438125399314003 1.4393920063450696 10.464656547544688 -0.14036582119611501 0.11334216329855105 -1.0907297735003876
Si 1.6142835311055201 7.022148356844725 4.907678914548445 -0.7398901222145915 -0.43424046617112483 -0.060069990012428694
Si 1.5958102337097695 6.8595442609151815 10.473943610987826 0.17735922465489098 0.9737124006626187 -0.5888395863545058
Si 7.007316552236774 1.3999213937157768 5.0625396074318845 -1.0884265061364917 -0.5183990805909231 -0.5060575421908301
Si 7.129720579108445 1.3772575306009893 10.557908692798282 -0.7082219421392091 -0.10534300332601161 -0.6167547843184595
Si 6.932617858218045 7.030789698329554 5.0083868712986455 1.3101248238991487 -0.1857972691490119 0.6776858900461697
Si 6.901431349485797 7.047217278449335 10.439117123076054 0.4681590231007906 -0.47790919907809976 0.24367718082247222
Si 2.8010698343925413 2.786287353259132 6.40872779431897 0.5816705016258552 0.37502924694262874 0.09414218532017449
Si 2.7794611535839393 2.7878362805353896 0.8436839325106104 0.4850878206971432 -0.2518327317665612 0.5689645962591329
Si 2.8486857615307297 8.39094285096014 6.351828180265929 0.7577834239296086 -0.5107517778514716 -0.0955808913808224
Si 2.861800254583195 8.240788243373803 1.053460383171679 0.005449897666781342 0.0147448262957375 -0.9992175496192809
Si 8.294221374048275 2.78365994086904 6.342225007855829 0.8998209172019428 0.3502072129591932 0.42344809222810453
Si 8.366146528063652 2.7297450277016195 1.0080823959489182 0.04745393535046828 0.6788979543101158 -0.21577066908816397
Si 8.331586188663593 8.589988358804785 6.316783686170043 0.2921886302796923 -0.7092793792040554 -0.49617046647491425
Si 8.441274647633362 8.389324461470812 0.900670749037296 -0.8812637838188583 -1.1916712749954166 0.1588558609321774
Si 1.468352628890007 4.2158477680384365 2.20688750206758 0.21183990333047767 -0.8543487015243334 0.6522483591317273
Si 1.36373051118812 4.168811958283342 7.7771962132222265 1.1896276841043953 0.5198716137959363 -0.6835496615579855
Si 1.5702243367456126 9.806963025624428 2.250020025593994 -0.19921803710515115 -0.47382845707589355 0.5023053545913946
Si 1.4683599170972748 9.72992111207195 7.64144376237614 -0.5242378972031253 0.21223710980408056 0.5773801316220102
Si 7.002216534957832 4.120910841518083 2.3327315718458097 -0.3359664195706463 0.18181194271894774 0.46727738091508725
Si 6.889035975446878 4.124924678258339 7.658208437934294 1.2202367773493463 0.44982022945058586 0.5461407193589511
Si 6.993734280964619 9.701727124545066 2.20600457702193 0.1686775464677931 -0.020223577132486664 0.8695333186644238
Si 6.965574239481206 9.725866079534658 7.779932190832823 -0.007946195924707114 0.7373766576129475 0.16641439111325407
63
Lattice="21.554097152656173 2.4985801975730533e-15 2.9835869257386927e-15 3.529624912126217 8.450328478537978 -2.9491729137152813e-16 6.073055043149088 -1.736477287369963 6.547904408410807" pbc="T T T" Properties=species:S:1:pos:R:3:forces:R:3 energy=-294.41361742 stress="-13231.706945590704 71.77682276590984 5486.00439810455 71.77682276591037 -14193.849697178033 14037.252502864512 5486.00439810455 14037.25250286451 -23809.091607231258"
Si 9.898625262544709 7.084739215877312 1.4875267318851337 0.29891024440106606 0.4219896156935522 1.4367299427939841
Si 5.525207672430565 5.152444787897294 0.20520477625518663 0.2738436096896688 -0.13370213119072247 0.08888923870178175
Si 23.765627918249027 2.7318349215042192 3.104125755468863 0.6133972445457401 0.060661000601925266 0.30904557317477255
Si 21.385644674458348 6.813392986285338 0.9380789771665674 -0.24461773373147255 0.1687092851132243 -0.4373856760940089
Si 10.843736596078855 5.871192683812859 3.6938038348727047 0.3852627300751294 -0.08671669890851827 -0.7326624189892342
Si 19.808788767784804 4.646136702591931 3.0679027482815338 -3.444442349347044 0.7924211058443018 1.3983645353238496
Si 14.168410435954163 -1.171808787777944 6.382812094561547 -0.46632088032204305 0.7614471724136814 -0.3388816918678695
Si 14.899479696787422 0.15429396206605284 4.2369263139327495 0.7177609467510222 -2.170901942945069 1.092833758410604
Si 21.71439296180951 1.769884390599874 4.4032365380019725 -0.506873575568576 -0.34425522920631496 -0.14600509033454043
Si 17.661859479604672 1.5910862186871457 3.74529000723604 -0.2487533751873666 -0.6176949472456311 0.8586095306809839
Si 21.30698537746898 0.25294806184123303 0.5814146240404328 0.4252833323110085 0.6386524889003954 0.9079573696746581
Si 9.399815083845153 1.1722294521244299 6.026115001913367 -0.5282105728195133 -0.5435201852672553 0.12305322778313535
Si 6.334802752005059 0.7510691882564434 5.645223402476112 1.8743660136344804 -3.1305935213423584 2.0250479987464476
Si 11.355511201182914 3.4140089916880174 0.8387996505262431 -0.8827862894851447 0.29483128933623215 0.1742721906601829
Si 27.138292421144392 6.98740871666459 5.295362322030316 -1.2164064241633537 -1.9426345870451496 1.7784055784141668
Si 21.553460700639217 -0.6022987340264928 2.870326280662146 -0.2594900092438026 0.035356568499304075 0.22929135277794463
Si 24.915455293174713 1.6564395697746255 5.359263321151994 -0.4900932633372425 0.5900538903933514 0.8485551191813405
Si 7.5591001683114305 2.9565824096392546 1.174307724508803 1.8737222715681743 -1.3016828554270947 -2.08704261224985
Si 19.467839186267707 5.020820859654283 0.6241331524009041 0.3794256842025447 0.30613838851014513 -0.09003296387750237
Si 21.82018751487252 4.139166225160908 2.4646181235170146 2.446518607609633 -1.2457577688887556 -0.7034491718294178
Si 15.675611048503479 1.2722573275756315 1.610967825792497 0.06998840261526698 0.4186831580051427 -0.15221974309897152
Si 24.982049172615838 5.340740707705076 3.9855850032159 -0.16312413007763413 -0.20277684618515907 -0.9012747399642411
Si 19.908193737699758 2.779733382719844 5.898601111463978 1.6767537914345412 -1.3465627177681556 -2.4604599115401498
Si 24.018491912263833 0.11007213197648937 3.8167341922362135 -0.11570503541970277 1.7006892379228329 -1.652360487382347
Si 14.115430592020795 2.080561992859285 3.634086946667999 0.6973050127309333 2.333348253996393 1.2637513232851652
Si 12.366772928694266 3.7509449431159454 4.323928319807302 -0.15292486042592254 0.1414270615113781 0.24300980472667164
Si 19.387508843771528 -0.4089073039284613 5.918938902556499 0.576054700738726 0.4259377090804013 0.15249400250038397
Si 4.366390003974406 2.146031387927462 1.4626643388463978 -0.3071163152069677 -0.45522313716881263 0.47433687718024725
Si 8.730851520068462 2.7610869979847266 4.198745483327304 -0.7678137171242226 -0.99542978948991 0.9655536186902929
Si 16.61131197092845 3.7493927927813786 0.545938077955661 0.16281918714588206 -0.3218910663733485 0.07510247892888845
Si 5.777871855061171 6.380857189212832 2.752464001310751 -0.5699278513807029 -1.0060152862210863 -0.04021713303098761
Si 9.093545902583248 -0.035700961515871196 2.2966578275368668 -0.7796299627541826 -0.5145052411944865 1.2527142607978023
Si 17.704792899932425 6.722224821367841 1.3995949235845855 -1.6943406762764677 -1.0150849980335879 2.1671803242160648
Si 12.960639318816495 1.9935599883802202 1.8005951374600728 -0.7448001809455802 -0.8791257681044922 -2.1258729376477867
Si 20.179993438718345 2.5175538717411445 1.9397250103299866 2.9070910476844793 0.27038666373892833 0.15901906890521733
Si 6.8759721200837935 1.057975610451562 2.6610552557693365 0.05439703517908895 -0.6474384633549402 0.4750217230252103
Si 11.034963074444489 1.557219335392916 4.405482469214058 0.5892403906497394 0.11742708761016547 -0.6873404013146033
Si 22.90869391636446 6.135867886040663 2.7270581322061176 1.0613167514781356 1.163451336384196 0.08362021879698386
Si 24.868014740676433 5.763471474327238 6.281090399576886 1.5607297909630062 1.7481262312012333 -1.6178042389163585
Si 24.138729436047445 4.758791529212891 0.7523935039528562 -0.06204321744445711 0.9388452046959682 0.18705503790350472
Si 15.010343911437843 2.381310467719847 6.1501650509307115 0.36880219234879047 0.40131443155121393 -0.4577488101676736
Si 12.638312289472054 -0.3963891533471968 3.277998809129803 -0.10197468920476711 0.02965567558704553 -0.31857957865923947
Si 22.6576656067558 4.016189057804971 5.302944795335253 0.010423099634108942 0.001535224347856347 0.370517090944448
Si 20.052567674089293 7.066905690816883 3.352599084054828 0.32610958431347453 0.22057722936257548 -0.389526645743997
Si 18.312337127899518 1.6173841673998481 1.5043548462147516 -2.928016256738778 -1.4192128736745027 -1.5660411306156221
Si 17.006178027284832 4.073287175458786 6.355048979869885 -1.8537392596946975 0.008417034151429961 -1.3235166997556103
Si 2.540115844275716 -0.17375780219225173 1.031556860501039 0.15846306428725565 0.08916869674193194 -0.020847685891480883
Si 10.224655467320561 1.2952028442092325 0.8780739811678898 0.5372676892282687 0.46719239464855705 -0.511754214848947
Si 16.24279227949069 5.664319291108164 4.454316740291988 1.085901268924269 0.2520367983678537 0.16609773740520042
Si 19.120440210555298 5.462683040319644 5.667918439155664 1.0325393407309225 -0.3433685639979732 -0.38825512292398556
Si 26.9859397554116 2.271315995693838 4.5573742077759665 -0.7495617370709767 2.9594675346252672 -2.0010183325121726